fubar                                                                   
SP        RSVWN                                                       Aug-CC-pVTZ         
Number of atoms                            I                4
Info1-9                                    I   N=           9
          14          13           0           0           0         110
           1          18         502
Full Title                                 C   N=           1
fubar       
Route                                      C   N=           4
#LSDA/aug-cc-pVTZ scf=tight maxdisk=1000GB      
Charge                                     I                0
Multiplicity                               I                1
Number of electrons                        I               14
Number of alpha electrons                  I                7
Number of beta electrons                   I                7
Number of basis functions                  I              138
Number of independent functions            I              138
Number of point charges in /Mol/           I                0
Number of translation vectors              I                0
Atomic numbers                             I   N=           4
           6           6           1           1
Nuclear charges                            R   N=           4
  6.00000000E+00  6.00000000E+00  1.00000000E+00  1.00000000E+00
Current cartesian coordinates              R   N=          12
  0.00000000E+00  0.00000000E+00  1.14304430E+00  1.39982555E-16  0.00000000E+00
 -1.14304430E+00  0.00000000E+00  0.00000000E+00  3.16668019E+00  3.87806476E-16
  0.00000000E+00 -3.16668019E+00
Number of symbols in /Mol/                 I                0
Int Atom Types                             I   N=           4
           0           0           0           0
Force Field                                I                0
Atom Types                                 C   N=           4
                                                
MM charges                                 R   N=           4
  0.00000000E+00  0.00000000E+00  0.00000000E+00  0.00000000E+00
Integer atomic weights                     I   N=           4
          12          12           1           1
Real atomic weights                        R   N=           4
  1.20000000E+01  1.20000000E+01  1.00782504E+00  1.00782504E+00
Atom fragment info                         I   N=           4
           0           0           0           0
Atom residue num                           I   N=           4
           0           0           0           0
Nuclear spins                              I   N=           4
           0           0           1           1
Nuclear ZEff                               R   N=           4
 -3.60000000E+00 -3.60000000E+00 -1.00000000E+00 -1.00000000E+00
Nuclear ZNuc                               R   N=           4
  6.00000000E+00  6.00000000E+00  1.00000000E+00  1.00000000E+00
Nuclear QMom                               R   N=           4
  0.00000000E+00  0.00000000E+00  0.00000000E+00  0.00000000E+00
Nuclear GFac                               R   N=           4
  0.00000000E+00  0.00000000E+00  2.79284600E+00  2.79284600E+00
MicOpt                                     I   N=           4
          -1          -1          -1          -1
Number of residues                         I                0
Number of secondary structures             I                0
SymInf integers                            I   N=          26
           2           8           1           1           1          -1
           1          -1          -1          -1           1           1
          -1          -1          -1           1           1           1
          -1           1           1           1          -1          -1
          -1          -1
RotTr to input orientation                 R   N=          12
  1.00000000E+00  0.00000000E+00  0.00000000E+00  0.00000000E+00  1.00000000E+00
  0.00000000E+00  0.00000000E+00  0.00000000E+00  1.00000000E+00  0.00000000E+00
  0.00000000E+00  0.00000000E+00
Number of contracted shells                I               46
Number of primitive shells                 I               76
Pure/Cartesian d shells                    I                0
Pure/Cartesian f shells                    I                0
Highest angular momentum                   I                3
Largest degree of contraction              I                7
Shell types                                I   N=          46
           0           0           0           0           0           1
           1           1           1          -2          -2          -2
          -3          -3           0           0           0           0
           0           1           1           1           1          -2
          -2          -2          -3          -3           0           0
           0           0           1           1           1          -2
          -2           0           0           0           0           1
           1           1          -2          -2
Number of primitives per shell             I   N=          46
           7           6           1           1           1           3
           1           1           1           1           1           1
           1           1           7           6           1           1
           1           3           1           1           1           1
           1           1           1           1           3           1
           1           1           1           1           1           1
           1           3           1           1           1           1
           1           1           1           1
Shell to atom map                          I   N=          46
           1           1           1           1           1           1
           1           1           1           1           1           1
           1           1           2           2           2           2
           2           2           2           2           2           2
           2           2           2           2           3           3
           3           3           3           3           3           3
           3           4           4           4           4           4
           4           4           4           4
Primitive exponents                        R   N=          76
  8.23600000E+03  1.23500000E+03  2.80800000E+02  7.92700000E+01  2.55900000E+01
  8.99700000E+00  3.31900000E+00  2.80800000E+02  7.92700000E+01  2.55900000E+01
  8.99700000E+00  3.31900000E+00  3.64300000E-01  9.05900000E-01  1.28500000E-01
  4.40200000E-02  1.87100000E+01  4.13300000E+00  1.20000000E+00  3.82700000E-01
  1.20900000E-01  3.56900000E-02  1.09700000E+00  3.18000000E-01  1.00000000E-01
  7.61000000E-01  2.68000000E-01  8.23600000E+03  1.23500000E+03  2.80800000E+02
  7.92700000E+01  2.55900000E+01  8.99700000E+00  3.31900000E+00  2.80800000E+02
  7.92700000E+01  2.55900000E+01  8.99700000E+00  3.31900000E+00  3.64300000E-01
  9.05900000E-01  1.28500000E-01  4.40200000E-02  1.87100000E+01  4.13300000E+00
  1.20000000E+00  3.82700000E-01  1.20900000E-01  3.56900000E-02  1.09700000E+00
  3.18000000E-01  1.00000000E-01  7.61000000E-01  2.68000000E-01  3.38700000E+01
  5.09500000E+00  1.15900000E+00  3.25800000E-01  1.02700000E-01  2.52600000E-02
  1.40700000E+00  3.88000000E-01  1.02000000E-01  1.05700000E+00  2.47000000E-01
  3.38700000E+01  5.09500000E+00  1.15900000E+00  3.25800000E-01  1.02700000E-01
  2.52600000E-02  1.40700000E+00  3.88000000E-01  1.02000000E-01  1.05700000E+00
  2.47000000E-01
Contraction coefficients                   R   N=          76
  5.41978320E-04  4.19287382E-03  2.15221621E-02  8.35343220E-02  2.39582846E-01
  4.42852842E-01  3.51799562E-01 -5.94922494E-05 -1.14815831E-03 -1.00191374E-02
 -6.12194923E-02 -1.73269854E-01  1.07291519E+00  1.00000000E+00  1.00000000E+00
  1.00000000E+00  3.94263872E-02  2.44088985E-01  8.15492009E-01  1.00000000E+00
  1.00000000E+00  1.00000000E+00  1.00000000E+00  1.00000000E+00  1.00000000E+00
  1.00000000E+00  1.00000000E+00  5.41978320E-04  4.19287382E-03  2.15221621E-02
  8.35343220E-02  2.39582846E-01  4.42852842E-01  3.51799562E-01 -5.94922494E-05
 -1.14815831E-03 -1.00191374E-02 -6.12194923E-02 -1.73269854E-01  1.07291519E+00
  1.00000000E+00  1.00000000E+00  1.00000000E+00  3.94263872E-02  2.44088985E-01
  8.15492009E-01  1.00000000E+00  1.00000000E+00  1.00000000E+00  1.00000000E+00
  1.00000000E+00  1.00000000E+00  1.00000000E+00  1.00000000E+00  2.54948632E-02
  1.90362766E-01  8.52162022E-01  1.00000000E+00  1.00000000E+00  1.00000000E+00
  1.00000000E+00  1.00000000E+00  1.00000000E+00  1.00000000E+00  1.00000000E+00
  2.54948632E-02  1.90362766E-01  8.52162022E-01  1.00000000E+00  1.00000000E+00
  1.00000000E+00  1.00000000E+00  1.00000000E+00  1.00000000E+00  1.00000000E+00
  1.00000000E+00
Coordinates of each shell                  R   N=         138
  0.00000000E+00  0.00000000E+00  1.14304430E+00  0.00000000E+00  0.00000000E+00
  1.14304430E+00  0.00000000E+00  0.00000000E+00  1.14304430E+00  0.00000000E+00
  0.00000000E+00  1.14304430E+00  0.00000000E+00  0.00000000E+00  1.14304430E+00
  0.00000000E+00  0.00000000E+00  1.14304430E+00  0.00000000E+00  0.00000000E+00
  1.14304430E+00  0.00000000E+00  0.00000000E+00  1.14304430E+00  0.00000000E+00
  0.00000000E+00  1.14304430E+00  0.00000000E+00  0.00000000E+00  1.14304430E+00
  0.00000000E+00  0.00000000E+00  1.14304430E+00  0.00000000E+00  0.00000000E+00
  1.14304430E+00  0.00000000E+00  0.00000000E+00  1.14304430E+00  0.00000000E+00
  0.00000000E+00  1.14304430E+00  1.39982555E-16  0.00000000E+00 -1.14304430E+00
  1.39982555E-16  0.00000000E+00 -1.14304430E+00  1.39982555E-16  0.00000000E+00
 -1.14304430E+00  1.39982555E-16  0.00000000E+00 -1.14304430E+00  1.39982555E-16
  0.00000000E+00 -1.14304430E+00  1.39982555E-16  0.00000000E+00 -1.14304430E+00
  1.39982555E-16  0.00000000E+00 -1.14304430E+00  1.39982555E-16  0.00000000E+00
 -1.14304430E+00  1.39982555E-16  0.00000000E+00 -1.14304430E+00  1.39982555E-16
  0.00000000E+00 -1.14304430E+00  1.39982555E-16  0.00000000E+00 -1.14304430E+00
  1.39982555E-16  0.00000000E+00 -1.14304430E+00  1.39982555E-16  0.00000000E+00
 -1.14304430E+00  1.39982555E-16  0.00000000E+00 -1.14304430E+00  0.00000000E+00
  0.00000000E+00  3.16668019E+00  0.00000000E+00  0.00000000E+00  3.16668019E+00
  0.00000000E+00  0.00000000E+00  3.16668019E+00  0.00000000E+00  0.00000000E+00
  3.16668019E+00  0.00000000E+00  0.00000000E+00  3.16668019E+00  0.00000000E+00
  0.00000000E+00  3.16668019E+00  0.00000000E+00  0.00000000E+00  3.16668019E+00
  0.00000000E+00  0.00000000E+00  3.16668019E+00  0.00000000E+00  0.00000000E+00
  3.16668019E+00  3.87806476E-16  0.00000000E+00 -3.16668019E+00  3.87806476E-16
  0.00000000E+00 -3.16668019E+00  3.87806476E-16  0.00000000E+00 -3.16668019E+00
  3.87806476E-16  0.00000000E+00 -3.16668019E+00  3.87806476E-16  0.00000000E+00
 -3.16668019E+00  3.87806476E-16  0.00000000E+00 -3.16668019E+00  3.87806476E-16
  0.00000000E+00 -3.16668019E+00  3.87806476E-16  0.00000000E+00 -3.16668019E+00
  3.87806476E-16  0.00000000E+00 -3.16668019E+00
Num ILSW                                   I              100
ILSW                                       I   N=         100
           0           0           0           0           2           0
           0           0           0           0         205134217728000
           5           0           0           0           0           0
           0           0           1           0           0           0
           1           0           0           0           0           0
           0           0      100000           0          -1           0
           0           0           0           0           0           0
           0           0           0           1           0           0
           0 -2000000000           1           0           0           0
           0           0           4          52           0           0
           0           0           0           0           0           0
           0           0           0           0           0           1
           0           0           0           0           0           0
           0           0           0           0           0           0
           0           0           0           0           0           0
           0           0           0           0           0           0
           0           0           0           0
Num RLSW                                   I               52
RLSW                                       R   N=          52
  1.00000000E+00  1.00000000E+00  1.00000000E+00  1.00000000E+00  0.00000000E+00
  0.00000000E+00  0.00000000E+00  1.00000000E+00  0.00000000E+00  0.00000000E+00
  0.00000000E+00  0.00000000E+00  1.00000000E+00  0.00000000E+00  0.00000000E+00
  0.00000000E+00  0.00000000E+00  1.00000000E+00  0.00000000E+00  0.00000000E+00
  0.00000000E+00  0.00000000E+00  1.00000000E+00  0.00000000E+00  0.00000000E+00
  0.00000000E+00  0.00000000E+00  1.00000000E+00  0.00000000E+00  0.00000000E+00
  0.00000000E+00  0.00000000E+00  1.00000000E+00  0.00000000E+00  0.00000000E+00
  0.00000000E+00  0.00000000E+00  0.00000000E+00  1.00000000E+00  1.00000000E+00
  0.00000000E+00  1.00000000E+00  0.00000000E+00  0.00000000E+00  0.00000000E+00
  0.00000000E+00  0.00000000E+00  0.00000000E+00  0.00000000E+00  0.00000000E+00
  0.00000000E+00  0.00000000E+00
MxBond                                     I                2
NBond                                      I   N=           4
           2           2           1           1
IBond                                      I   N=           8
           2           3           1           4           1           0
           2           0
RBond                                      R   N=           8
  3.00000000E+00  1.00000000E+00  3.00000000E+00  1.00000000E+00  1.00000000E+00
  0.00000000E+00  1.00000000E+00  0.00000000E+00
Virial Ratio                               R      2.012169103481219E+00
SCF Energy                                 R     -7.689295771161109E+01
Total Energy                               R     -7.689295771161109E+01
RMS Density                                R      8.060127269567699E-10
Job Status                                 I                1
Nuclear derivative order                   I                0
External E-field                           R   N=          35
  0.00000000E+00  0.00000000E+00  0.00000000E+00  0.00000000E+00  0.00000000E+00
  0.00000000E+00  0.00000000E+00  0.00000000E+00  0.00000000E+00  0.00000000E+00
  0.00000000E+00  0.00000000E+00  0.00000000E+00  0.00000000E+00  0.00000000E+00
  0.00000000E+00  0.00000000E+00  0.00000000E+00  0.00000000E+00  0.00000000E+00
  0.00000000E+00  0.00000000E+00  0.00000000E+00  0.00000000E+00  0.00000000E+00
  0.00000000E+00  0.00000000E+00  0.00000000E+00  0.00000000E+00  0.00000000E+00
  0.00000000E+00  0.00000000E+00  0.00000000E+00  0.00000000E+00  0.00000000E+00
IOpCl                                      I                0
IROHF                                      I                0
Alpha Orbital Energies                     R   N=         138
 -9.81862309E+00 -9.81647907E+00 -6.97138879E-01 -5.31247131E-01 -4.66087700E-01
 -2.87170347E-01 -2.87170347E-01 -3.99548107E-02 -3.99548107E-02 -1.09189210E-02
 -4.21695070E-03  3.62559645E-02  3.62559645E-02  3.63738917E-02  5.43141789E-02
  8.21180915E-02  8.21180915E-02  8.34583073E-02  1.17399603E-01  1.58040106E-01
  1.71205080E-01  1.71205090E-01  1.88996004E-01  1.88996004E-01  1.89559577E-01
  2.67796316E-01  2.67796316E-01  2.86875514E-01  2.86875589E-01  2.87369960E-01
  2.87461751E-01  3.18678237E-01  3.30010086E-01  3.30010086E-01  3.31083947E-01
  3.31083947E-01  4.21067142E-01  4.57774093E-01  4.57774093E-01  4.78376909E-01
  4.83972429E-01  6.55235814E-01  6.55235814E-01  6.99324177E-01  6.99324205E-01
  7.03474547E-01  7.09508104E-01  7.57527049E-01  7.57527049E-01  7.83899661E-01
  7.83899667E-01  8.01006158E-01  8.25322524E-01  8.25322524E-01  8.37470201E-01
  8.37470284E-01  8.44445476E-01  8.44445476E-01  8.75171981E-01  9.57486104E-01
  9.57486104E-01  9.58055484E-01  9.84223728E-01  9.84223738E-01  1.02082148E+00
  1.06141674E+00  1.07617853E+00  1.07617853E+00  1.17153815E+00  1.17153815E+00
  1.30582673E+00  1.30582673E+00  1.39573071E+00  1.39573079E+00  1.49790256E+00
  1.49790256E+00  1.52646286E+00  1.62400713E+00  1.62400713E+00  1.68100915E+00
  1.74172945E+00  1.75889269E+00  1.75889274E+00  1.84842022E+00  1.90203113E+00
  2.06173712E+00  2.06173712E+00  2.38086805E+00  2.38086805E+00  2.46711751E+00
  2.60964291E+00  2.75317861E+00  2.75670449E+00  2.75670449E+00  2.79152110E+00
  2.79152110E+00  2.90947287E+00  2.90947287E+00  2.97070016E+00  2.97070016E+00
  3.04372400E+00  3.04372400E+00  3.16621735E+00  3.16621737E+00  3.17520537E+00
  3.29584685E+00  3.29584685E+00  3.31383435E+00  3.36681566E+00  3.36681566E+00
  3.39787350E+00  3.39787350E+00  3.43072656E+00  3.68544377E+00  3.68544379E+00
  3.75860192E+00  3.75860193E+00  3.88486295E+00  4.23640599E+00  4.23640599E+00
  4.24514712E+00  4.32634188E+00  4.32634188E+00  4.34843825E+00  4.34843825E+00
  4.60908516E+00  4.60908516E+00  4.84388902E+00  4.90448621E+00  5.34986214E+00
  5.34986214E+00  5.68008530E+00  6.21551451E+00  6.28543352E+00  6.28543352E+00
  6.39319879E+00  1.28160580E+01  1.84864240E+01
Alpha MO coefficients                      R   N=       19044
  6.81525867E-01 -1.79813026E-02  5.48312881E-02 -3.97626254E-03 -9.62362086E-04
  0.00000000E+00  0.00000000E+00 -5.33160877E-04  0.00000000E+00  0.00000000E+00
 -1.19893520E-02  0.00000000E+00  0.00000000E+00  1.06309972E-02  0.00000000E+00
  0.00000000E+00  1.29935020E-03  1.50472694E-03  0.00000000E+00  0.00000000E+00
 -2.94146547E-19  0.00000000E+00 -1.62849777E-02  0.00000000E+00  0.00000000E+00
  2.13129959E-16  0.00000000E+00 -4.34026482E-03  0.00000000E+00  0.00000000E+00
  7.67529678E-17  0.00000000E+00  1.14625718E-03  0.00000000E+00  0.00000000E+00
 -4.70929446E-17  0.00000000E+00  0.00000000E+00  0.00000000E+00  1.31009204E-03
  0.00000000E+00  0.00000000E+00  1.49585049E-16  0.00000000E+00  0.00000000E+00
  0.00000000E+00  6.81525867E-01 -1.79813026E-02  5.48312881E-02 -3.97626254E-03
 -9.62362086E-04  0.00000000E+00  0.00000000E+00  5.33160877E-04  0.00000000E+00
  0.00000000E+00  1.19893520E-02  0.00000000E+00  0.00000000E+00 -1.06309972E-02
  0.00000000E+00  0.00000000E+00 -1.29935020E-03  1.50472694E-03  0.00000000E+00
  0.00000000E+00 -2.94146547E-19  0.00000000E+00 -1.62849777E-02  0.00000000E+00
  0.00000000E+00  2.13129959E-16  0.00000000E+00 -4.34026482E-03  0.00000000E+00
  0.00000000E+00  7.67529678E-17  0.00000000E+00 -1.14625718E-03  0.00000000E+00
  0.00000000E+00  4.70929446E-17  0.00000000E+00  0.00000000E+00  0.00000000E+00
 -1.31009204E-03  0.00000000E+00  0.00000000E+00 -1.49585049E-16  0.00000000E+00
  0.00000000E+00  0.00000000E+00 -3.06123812E-04  2.34571564E-02 -2.00490435E-03
 -1.00013373E-04  0.00000000E+00  0.00000000E+00  8.15769401E-04  0.00000000E+00
  0.00000000E+00 -1.04565867E-02  0.00000000E+00  0.00000000E+00  8.56704946E-04
 -5.92017664E-04  0.00000000E+00  0.00000000E+00 -1.10951020E-18  0.00000000E+00
  1.41383812E-03  0.00000000E+00  0.00000000E+00 -1.57787684E-16  0.00000000E+00
 -3.06123812E-04  2.34571564E-02 -2.00490435E-03 -1.00013373E-04  0.00000000E+00
  0.00000000E+00 -8.15769401E-04  0.00000000E+00  0.00000000E+00  1.04565867E-02
  0.00000000E+00  0.00000000E+00 -8.56704946E-04 -5.92017664E-04  0.00000000E+00
  0.00000000E+00 -1.10951020E-18  0.00000000E+00  1.41383812E-03  0.00000000E+00
  0.00000000E+00 -1.57787684E-16  0.00000000E+00  6.82009698E-01 -1.69009617E-02
  5.31069804E-02 -7.38950726E-03 -9.60224151E-02  0.00000000E+00  0.00000000E+00
  1.00633124E-03  0.00000000E+00  0.00000000E+00 -2.11577668E-02  0.00000000E+00
  0.00000000E+00 -9.34647268E-02  0.00000000E+00  0.00000000E+00  1.88162352E-02
  3.04588806E-03  0.00000000E+00  0.00000000E+00  1.15830612E-16  0.00000000E+00
 -1.05884530E-02  0.00000000E+00  0.00000000E+00 -7.99419324E-16  0.00000000E+00
 -5.91783043E-03  0.00000000E+00  0.00000000E+00  1.13819175E-16  0.00000000E+00
 -2.51425754E-03  0.00000000E+00  0.00000000E+00 -1.58728102E-16  0.00000000E+00
  0.00000000E+00  0.00000000E+00 -1.03164413E-02  0.00000000E+00  0.00000000E+00
  1.24944224E-15  0.00000000E+00  0.00000000E+00  0.00000000E+00 -6.82009698E-01
  1.69009617E-02 -5.31069804E-02  7.38950726E-03  9.60224151E-02  0.00000000E+00
  0.00000000E+00  1.00633124E-03  0.00000000E+00  0.00000000E+00 -2.11577668E-02
  0.00000000E+00  0.00000000E+00 -9.34647268E-02  0.00000000E+00  0.00000000E+00
  1.88162352E-02 -3.04588806E-03  0.00000000E+00  0.00000000E+00 -1.15830612E-16
  0.00000000E+00  1.05884530E-02  0.00000000E+00  0.00000000E+00  7.99419324E-16
  0.00000000E+00  5.91783043E-03  0.00000000E+00  0.00000000E+00 -1.13819175E-16
  0.00000000E+00 -2.51425754E-03  0.00000000E+00  0.00000000E+00 -1.58728102E-16
  0.00000000E+00  0.00000000E+00  0.00000000E+00 -1.03164413E-02  0.00000000E+00
  0.00000000E+00  1.24944224E-15  0.00000000E+00  0.00000000E+00  0.00000000E+00
  1.25957270E-03  4.53936654E-02  1.02537609E-01 -6.75918532E-03  0.00000000E+00
  0.00000000E+00 -7.72611959E-04  0.00000000E+00  0.00000000E+00 -1.05148840E-02
  0.00000000E+00  0.00000000E+00 -2.34037763E-02 -4.42678728E-04  0.00000000E+00
  0.00000000E+00  4.47319572E-17  0.00000000E+00  4.15698552E-04  0.00000000E+00
  0.00000000E+00 -6.27622250E-16  0.00000000E+00 -1.25957270E-03 -4.53936654E-02
 -1.02537609E-01  6.75918532E-03  0.00000000E+00  0.00000000E+00 -7.72611959E-04
  0.00000000E+00  0.00000000E+00 -1.05148840E-02  0.00000000E+00  0.00000000E+00
 -2.34037763E-02  4.42678728E-04  0.00000000E+00  0.00000000E+00 -4.47319572E-17
  0.00000000E+00 -4.15698552E-04  0.00000000E+00  0.00000000E+00  6.27622250E-16
  0.00000000E+00 -1.65245513E-01  3.63764140E-01  8.91394772E-02  2.12989448E-01
 -3.25215211E-03  0.00000000E+00  0.00000000E+00 -9.93466485E-02  0.00000000E+00
  0.00000000E+00 -2.76459563E-02  0.00000000E+00  0.00000000E+00  1.43770321E-02
  0.00000000E+00  0.00000000E+00 -6.76986654E-03  1.85751839E-02  0.00000000E+00
  0.00000000E+00  3.28297332E-17  0.00000000E+00  3.24359568E-02  0.00000000E+00
  0.00000000E+00  1.75850405E-16  0.00000000E+00 -1.80801226E-03  0.00000000E+00
  0.00000000E+00  2.33806028E-16  0.00000000E+00 -6.26530675E-04  0.00000000E+00
  0.00000000E+00 -5.06487307E-17  0.00000000E+00  0.00000000E+00  0.00000000E+00
  2.25453388E-03  0.00000000E+00  0.00000000E+00  5.03975823E-17  0.00000000E+00
  0.00000000E+00  0.00000000E+00 -1.65245513E-01  3.63764140E-01  8.91394772E-02
  2.12989448E-01 -3.25215211E-03  0.00000000E+00  0.00000000E+00  9.93466485E-02
  0.00000000E+00  0.00000000E+00  2.76459563E-02  0.00000000E+00  0.00000000E+00
 -1.43770321E-02  0.00000000E+00  0.00000000E+00  6.76986654E-03  1.85751839E-02
  0.00000000E+00  0.00000000E+00  3.28297332E-17  0.00000000E+00  3.24359568E-02
  0.00000000E+00  0.00000000E+00  1.75850405E-16  0.00000000E+00 -1.80801226E-03
  0.00000000E+00  0.00000000E+00  2.33806028E-16  0.00000000E+00  6.26530675E-04
  0.00000000E+00  0.00000000E+00  5.06487307E-17  0.00000000E+00  0.00000000E+00
  0.00000000E+00 -2.25453388E-03  0.00000000E+00  0.00000000E+00 -5.03975823E-17
  0.00000000E+00  0.00000000E+00  0.00000000E+00  4.45102846E-02 -2.43567213E-02
 -5.24765094E-02  2.36825736E-03  0.00000000E+00  0.00000000E+00 -2.68056382E-03
  0.00000000E+00  0.00000000E+00  3.39429507E-02  0.00000000E+00  0.00000000E+00
  2.93434778E-02 -2.79309062E-03  0.00000000E+00  0.00000000E+00 -8.99389976E-18
  0.00000000E+00 -1.16361638E-02  0.00000000E+00  0.00000000E+00 -2.27566400E-17
  0.00000000E+00  4.45102846E-02 -2.43567213E-02 -5.24765094E-02  2.36825736E-03
  0.00000000E+00  0.00000000E+00  2.68056382E-03  0.00000000E+00  0.00000000E+00
 -3.39429507E-02  0.00000000E+00  0.00000000E+00 -2.93434778E-02 -2.79309062E-03
  0.00000000E+00  0.00000000E+00 -8.99389976E-18  0.00000000E+00 -1.16361638E-02
  0.00000000E+00  0.00000000E+00 -2.27566400E-17  0.00000000E+00 -1.08307220E-01
  2.54360821E-01  6.22902456E-02  5.18693334E-01  2.41476002E-01  0.00000000E+00
  0.00000000E+00  1.16819987E-01  0.00000000E+00  0.00000000E+00  7.70793311E-02
  0.00000000E+00  0.00000000E+00 -3.76967624E-02  0.00000000E+00  0.00000000E+00
 -4.72600126E-02  8.70694373E-03  0.00000000E+00  0.00000000E+00 -1.04486015E-16
  0.00000000E+00  3.48753204E-02  0.00000000E+00  0.00000000E+00  3.64401514E-16
  0.00000000E+00  4.00309838E-02  0.00000000E+00  0.00000000E+00 -6.59645360E-17
  0.00000000E+00 -1.83946174E-03  0.00000000E+00  0.00000000E+00  4.98962730E-17
  0.00000000E+00  0.00000000E+00  0.00000000E+00  9.30315487E-03  0.00000000E+00
  0.00000000E+00 -6.03732039E-16  0.00000000E+00  0.00000000E+00  0.00000000E+00
  1.08307220E-01 -2.54360821E-01 -6.22902456E-02 -5.18693334E-01 -2.41476002E-01
  0.00000000E+00  0.00000000E+00  1.16819987E-01  0.00000000E+00  0.00000000E+00
  7.70793311E-02  0.00000000E+00  0.00000000E+00 -3.76967624E-02  0.00000000E+00
  0.00000000E+00 -4.72600126E-02 -8.70694373E-03  0.00000000E+00  0.00000000E+00
  1.04486015E-16  0.00000000E+00 -3.48753204E-02  0.00000000E+00  0.00000000E+00
 -3.64401514E-16  0.00000000E+00 -4.00309838E-02  0.00000000E+00  0.00000000E+00
  6.59645360E-17  0.00000000E+00 -1.83946174E-03  0.00000000E+00  0.00000000E+00
  4.98962730E-17  0.00000000E+00  0.00000000E+00  0.00000000E+00  9.30315487E-03
  0.00000000E+00  0.00000000E+00 -6.03732039E-16  0.00000000E+00  0.00000000E+00
  0.00000000E+00  1.29055464E-01  1.35950770E-01 -2.49588211E-02  1.93444742E-02
  0.00000000E+00  0.00000000E+00 -1.19832640E-02  0.00000000E+00  0.00000000E+00
 -1.05831685E-02  0.00000000E+00  0.00000000E+00  8.83036415E-04  3.44836963E-03
  0.00000000E+00  0.00000000E+00  8.57054614E-18  0.00000000E+00  3.95492573E-03
  0.00000000E+00  0.00000000E+00  3.71854429E-16  0.00000000E+00 -1.29055464E-01
 -1.35950770E-01  2.49588211E-02 -1.93444742E-02  0.00000000E+00  0.00000000E+00
 -1.19832640E-02  0.00000000E+00  0.00000000E+00 -1.05831685E-02  0.00000000E+00
  0.00000000E+00  8.83036415E-04 -3.44836963E-03  0.00000000E+00  0.00000000E+00
 -8.57054614E-18  0.00000000E+00 -3.95492573E-03  0.00000000E+00  0.00000000E+00
 -3.71854429E-16  0.00000000E+00 -1.53277280E-03  2.68286996E-04 -1.47468291E-03
  1.16120104E-01  3.32500209E-03  0.00000000E+00  0.00000000E+00  2.37127015E-01
  0.00000000E+00  0.00000000E+00  2.01151517E-01  0.00000000E+00  0.00000000E+00
  1.30202833E-01  0.00000000E+00  0.00000000E+00  3.00301168E-03 -5.78943999E-03
  0.00000000E+00  0.00000000E+00  1.45975265E-16  0.00000000E+00  3.73741430E-03
  0.00000000E+00  0.00000000E+00 -4.75752039E-16  0.00000000E+00 -7.00887429E-03
  0.00000000E+00  0.00000000E+00 -2.98045891E-16  0.00000000E+00  2.07987815E-03
  0.00000000E+00  0.00000000E+00  7.10596632E-17  0.00000000E+00  0.00000000E+00
  0.00000000E+00  5.10432160E-03  0.00000000E+00  0.00000000E+00 -2.47354246E-16
  0.00000000E+00  0.00000000E+00  0.00000000E+00 -1.53277280E-03  2.68286996E-04
 -1.47468291E-03  1.16120104E-01  3.32500209E-03  0.00000000E+00  0.00000000E+00
 -2.37127015E-01  0.00000000E+00  0.00000000E+00 -2.01151517E-01  0.00000000E+00
  0.00000000E+00 -1.30202833E-01  0.00000000E+00  0.00000000E+00 -3.00301168E-03
 -5.78943999E-03  0.00000000E+00  0.00000000E+00  1.45975265E-16  0.00000000E+00
  3.73741430E-03  0.00000000E+00  0.00000000E+00 -4.75752039E-16  0.00000000E+00
 -7.00887429E-03  0.00000000E+00  0.00000000E+00 -2.98045891E-16  0.00000000E+00
 -2.07987815E-03  0.00000000E+00  0.00000000E+00 -7.10596632E-17  0.00000000E+00
  0.00000000E+00  0.00000000E+00 -5.10432160E-03  0.00000000E+00  0.00000000E+00
  2.47354246E-16  0.00000000E+00  0.00000000E+00  0.00000000E+00  1.32135295E-01
  1.93724037E-01  5.19368193E-03  5.50076979E-04  0.00000000E+00  0.00000000E+00
 -1.23286849E-02  0.00000000E+00  0.00000000E+00 -2.21332070E-02  0.00000000E+00
  0.00000000E+00  1.37095820E-02  5.07744369E-03  0.00000000E+00  0.00000000E+00
  5.29346466E-17  0.00000000E+00  4.88798521E-03  0.00000000E+00  0.00000000E+00
  2.23917856E-16  0.00000000E+00  1.32135295E-01  1.93724037E-01  5.19368193E-03
  5.50076979E-04  0.00000000E+00  0.00000000E+00  1.23286849E-02  0.00000000E+00
  0.00000000E+00  2.21332070E-02  0.00000000E+00  0.00000000E+00 -1.37095820E-02
  5.07744369E-03  0.00000000E+00  0.00000000E+00  5.29346466E-17  0.00000000E+00
  4.88798521E-03  0.00000000E+00  0.00000000E+00  2.23917856E-16  0.00000000E+00
  0.00000000E+00  0.00000000E+00  0.00000000E+00  0.00000000E+00  0.00000000E+00
  2.41189248E-01  0.00000000E+00  0.00000000E+00  2.87315936E-01  0.00000000E+00
  0.00000000E+00  1.83782652E-01  0.00000000E+00  0.00000000E+00  1.29375062E-02
  0.00000000E+00  0.00000000E+00  0.00000000E+00 -1.18523129E-02  0.00000000E+00
  0.00000000E+00  0.00000000E+00  0.00000000E+00 -1.36973863E-02  0.00000000E+00
  0.00000000E+00  0.00000000E+00  0.00000000E+00  1.71911911E-02  0.00000000E+00
  0.00000000E+00  0.00000000E+00  0.00000000E+00  8.10157780E-03  0.00000000E+00
  0.00000000E+00  0.00000000E+00 -1.72532221E-10  0.00000000E+00  0.00000000E+00
 -6.33556960E-03  0.00000000E+00  0.00000000E+00  0.00000000E+00  7.37297565E-10
  0.00000000E+00  0.00000000E+00  0.00000000E+00  0.00000000E+00  0.00000000E+00
  0.00000000E+00  2.41189248E-01  0.00000000E+00  0.00000000E+00  2.87315936E-01
  0.00000000E+00  0.00000000E+00  1.83782652E-01  0.00000000E+00  0.00000000E+00
  1.29375062E-02  0.00000000E+00  0.00000000E+00  0.00000000E+00  1.18523129E-02
  0.00000000E+00  0.00000000E+00  0.00000000E+00  0.00000000E+00  1.36973863E-02
  0.00000000E+00  0.00000000E+00  0.00000000E+00  0.00000000E+00 -1.71911911E-02