fubar                                                                   
SP        RSVWN                                                       Aug-CC-pVTZ         
Number of atoms                            I                2
Info1-9                                    I   N=           9
          11          11           0           0           0         110
           1          18         502
Full Title                                 C   N=           1
fubar       
Route                                      C   N=           4
#LSDA/aug-cc-pVTZ scf=tight maxdisk=70GB        
Charge                                     I                0
Multiplicity                               I                1
Number of electrons                        I                2
Number of alpha electrons                  I                1
Number of beta electrons                   I                1
Number of basis functions                  I               46
Number of independent functions            I               46
Number of point charges in /Mol/           I                0
Number of translation vectors              I                0
Atomic numbers                             I   N=           2
           1           1
Nuclear charges                            R   N=           2
  1.00000000E+00  1.00000000E+00
Current cartesian coordinates              R   N=           6
  0.00000000E+00  0.00000000E+00  7.19289718E-01  8.80875851E-17  0.00000000E+00
 -7.19289718E-01
Number of symbols in /Mol/                 I                0
Int Atom Types                             I   N=           2
           0           0
Force Field                                I                0
Atom Types                                 C   N=           2
                        
MM charges                                 R   N=           2
  0.00000000E+00  0.00000000E+00
Integer atomic weights                     I   N=           2
           1           1
Real atomic weights                        R   N=           2
  1.00782504E+00  1.00782504E+00
Atom fragment info                         I   N=           2
           0           0
Atom residue num                           I   N=           2
           0           0
Nuclear spins                              I   N=           2
           1           1
Nuclear ZEff                               R   N=           2
 -1.00000000E+00 -1.00000000E+00
Nuclear ZNuc                               R   N=           2
  1.00000000E+00  1.00000000E+00
Nuclear QMom                               R   N=           2
  0.00000000E+00  0.00000000E+00
Nuclear GFac                               R   N=           2
  2.79284600E+00  2.79284600E+00
MicOpt                                     I   N=           2
          -1          -1
Number of residues                         I                0
Number of secondary structures             I                0
SymInf integers                            I   N=          26
           2           8           1           1           1          -1
           1          -1          -1          -1           1           1
          -1          -1          -1           1           1           1
          -1           1           1           1          -1          -1
          -1          -1
RotTr to input orientation                 R   N=          12
  1.00000000E+00  0.00000000E+00  0.00000000E+00  0.00000000E+00  1.00000000E+00
  0.00000000E+00  0.00000000E+00  0.00000000E+00  1.00000000E+00  0.00000000E+00
  0.00000000E+00  0.00000000E+00
Number of contracted shells                I               18
Number of primitive shells                 I               22
Pure/Cartesian d shells                    I                0
Pure/Cartesian f shells                    I                0
Highest angular momentum                   I                2
Largest degree of contraction              I                3
Shell types                                I   N=          18
           0           0           0           0           1           1
           1          -2          -2           0           0           0
           0           1           1           1          -2          -2
Number of primitives per shell             I   N=          18
           3           1           1           1           1           1
           1           1           1           3           1           1
           1           1           1           1           1           1
Shell to atom map                          I   N=          18
           1           1           1           1           1           1
           1           1           1           2           2           2
           2           2           2           2           2           2
Primitive exponents                        R   N=          22
  3.38700000E+01  5.09500000E+00  1.15900000E+00  3.25800000E-01  1.02700000E-01
  2.52600000E-02  1.40700000E+00  3.88000000E-01  1.02000000E-01  1.05700000E+00
  2.47000000E-01  3.38700000E+01  5.09500000E+00  1.15900000E+00  3.25800000E-01
  1.02700000E-01  2.52600000E-02  1.40700000E+00  3.88000000E-01  1.02000000E-01
  1.05700000E+00  2.47000000E-01
Contraction coefficients                   R   N=          22
  2.54948632E-02  1.90362766E-01  8.52162022E-01  1.00000000E+00  1.00000000E+00
  1.00000000E+00  1.00000000E+00  1.00000000E+00  1.00000000E+00  1.00000000E+00
  1.00000000E+00  2.54948632E-02  1.90362766E-01  8.52162022E-01  1.00000000E+00
  1.00000000E+00  1.00000000E+00  1.00000000E+00  1.00000000E+00  1.00000000E+00
  1.00000000E+00  1.00000000E+00
Coordinates of each shell                  R   N=          54
  0.00000000E+00  0.00000000E+00  7.19289718E-01  0.00000000E+00  0.00000000E+00
  7.19289718E-01  0.00000000E+00  0.00000000E+00  7.19289718E-01  0.00000000E+00
  0.00000000E+00  7.19289718E-01  0.00000000E+00  0.00000000E+00  7.19289718E-01
  0.00000000E+00  0.00000000E+00  7.19289718E-01  0.00000000E+00  0.00000000E+00
  7.19289718E-01  0.00000000E+00  0.00000000E+00  7.19289718E-01  0.00000000E+00
  0.00000000E+00  7.19289718E-01  8.80875851E-17  0.00000000E+00 -7.19289718E-01
  8.80875851E-17  0.00000000E+00 -7.19289718E-01  8.80875851E-17  0.00000000E+00
 -7.19289718E-01  8.80875851E-17  0.00000000E+00 -7.19289718E-01  8.80875851E-17
  0.00000000E+00 -7.19289718E-01  8.80875851E-17  0.00000000E+00 -7.19289718E-01
  8.80875851E-17  0.00000000E+00 -7.19289718E-01  8.80875851E-17  0.00000000E+00
 -7.19289718E-01  8.80875851E-17  0.00000000E+00 -7.19289718E-01
Num ILSW                                   I              100
ILSW                                       I   N=         100
           0           0           0           0           2           0
           0           0           0           0         205  9395240960
           5           0           0           0           0           0
           0           0           1           0           0           0
           1           0           0           0           0           0
           0           0      100000           0          -1           0
           0           0           0           0           0           0
           0           0           0           1           0           0
           0 -2000000000           1           0           0           0
           0           0           4          52           0           0
           0           0           0           0           0           0
           0           0           0           0           0           1
           0           0           0           0           0           0
           0           0           0           0           0           0
           0           0           0           0           0           0
           0           0           0           0           0           0
           0           0           0           0
Num RLSW                                   I               52
RLSW                                       R   N=          52
  1.00000000E+00  1.00000000E+00  1.00000000E+00  1.00000000E+00  0.00000000E+00
  0.00000000E+00  0.00000000E+00  1.00000000E+00  0.00000000E+00  0.00000000E+00
  0.00000000E+00  0.00000000E+00  1.00000000E+00  0.00000000E+00  0.00000000E+00
  0.00000000E+00  0.00000000E+00  1.00000000E+00  0.00000000E+00  0.00000000E+00
  0.00000000E+00  0.00000000E+00  1.00000000E+00  0.00000000E+00  0.00000000E+00
  0.00000000E+00  0.00000000E+00  1.00000000E+00  0.00000000E+00  0.00000000E+00
  0.00000000E+00  0.00000000E+00  1.00000000E+00  0.00000000E+00  0.00000000E+00
  0.00000000E+00  0.00000000E+00  0.00000000E+00  1.00000000E+00  1.00000000E+00
  0.00000000E+00  1.00000000E+00  0.00000000E+00  0.00000000E+00  0.00000000E+00
  0.00000000E+00  0.00000000E+00  0.00000000E+00  0.00000000E+00  0.00000000E+00
  0.00000000E+00  0.00000000E+00
MxBond                                     I                1
NBond                                      I   N=           2
           1           1
IBond                                      I   N=           2
           2           1
RBond                                      R   N=           2
  1.00000000E+00  1.00000000E+00
Virial Ratio                               R      2.076526844724175E+00
SCF Energy                                 R     -1.172723258815684E+00
Total Energy                               R     -1.172723258815684E+00
RMS Density                                R      9.270524600454287E-10
Job Status                                 I                1
Nuclear derivative order                   I                0
External E-field                           R   N=          35
  0.00000000E+00  0.00000000E+00  0.00000000E+00  0.00000000E+00  0.00000000E+00
  0.00000000E+00  0.00000000E+00  0.00000000E+00  0.00000000E+00  0.00000000E+00
  0.00000000E+00  0.00000000E+00  0.00000000E+00  0.00000000E+00  0.00000000E+00
  0.00000000E+00  0.00000000E+00  0.00000000E+00  0.00000000E+00  0.00000000E+00
  0.00000000E+00  0.00000000E+00  0.00000000E+00  0.00000000E+00  0.00000000E+00
  0.00000000E+00  0.00000000E+00  0.00000000E+00  0.00000000E+00  0.00000000E+00
  0.00000000E+00  0.00000000E+00  0.00000000E+00  0.00000000E+00  0.00000000E+00
IOpCl                                      I                0
IROHF                                      I                0
Alpha Orbital Energies                     R   N=          46
 -3.91191474E-01 -1.73286123E-03  1.40477907E-02  8.73391588E-02  8.73391588E-02
  8.78898936E-02  2.03580334E-01  2.19532000E-01  2.19532000E-01  2.94881779E-01
  3.12765537E-01  5.76710706E-01  6.07086474E-01  6.07086474E-01  6.98638106E-01
  6.98638106E-01  7.27976601E-01  7.27976601E-01  7.28521710E-01  8.83622176E-01
  8.86541586E-01  8.86541587E-01  8.98905676E-01  8.98905676E-01  1.27896574E+00
  1.67977205E+00  1.67977205E+00  1.94796097E+00  2.22276830E+00  2.54622471E+00
  3.21131613E+00  3.21131613E+00  3.24081200E+00  3.24081200E+00  3.73231828E+00
  4.01438048E+00  4.01438048E+00  4.02436257E+00  4.02436257E+00  4.12450201E+00
  4.12450201E+00  4.74480715E+00  5.28906331E+00  5.28906331E+00  5.45118180E+00
  6.52668451E+00
Alpha MO coefficients                      R   N=        2116
  1.89226543E-01  2.76274213E-01  1.45834075E-01  2.08600508E-03  0.00000000E+00
  0.00000000E+00 -1.08469397E-02  0.00000000E+00  0.00000000E+00 -7.83922271E-03
  0.00000000E+00  0.00000000E+00 -4.15354902E-03  3.73484705E-04  0.00000000E+00
  0.00000000E+00  1.34770214E-17  0.00000000E+00 -2.27104062E-03  0.00000000E+00
  0.00000000E+00 -3.27440101E-18  0.00000000E+00  1.89226543E-01  2.76274213E-01
  1.45834075E-01  2.08600508E-03  0.00000000E+00  0.00000000E+00  1.08469397E-02
  0.00000000E+00  0.00000000E+00  7.83922271E-03  0.00000000E+00  0.00000000E+00
  4.15354902E-03  3.73484705E-04  0.00000000E+00  0.00000000E+00  1.34770214E-17
  0.00000000E+00 -2.27104062E-03  0.00000000E+00  0.00000000E+00 -3.27440101E-18
  0.00000000E+00  6.56572570E-02  1.69323925E-01  3.95198387E-01  2.68303584E+00
  0.00000000E+00  0.00000000E+00  7.29245745E-03  0.00000000E+00  0.00000000E+00
  2.69043623E-02  0.00000000E+00  0.00000000E+00  1.12650997E-01  2.00805743E-04
  0.00000000E+00  0.00000000E+00  4.32383359E-17  0.00000000E+00  1.78961672E-03
  0.00000000E+00  0.00000000E+00 -1.92451726E-16  0.00000000E+00 -6.56572570E-02
 -1.69323925E-01 -3.95198387E-01 -2.68303584E+00  0.00000000E+00  0.00000000E+00
  7.29245745E-03  0.00000000E+00  0.00000000E+00  2.69043623E-02  0.00000000E+00
  0.00000000E+00  1.12650997E-01 -2.00805743E-04  0.00000000E+00  0.00000000E+00
 -4.32383359E-17  0.00000000E+00 -1.78961672E-03  0.00000000E+00  0.00000000E+00
  1.92451726E-16  0.00000000E+00 -5.58705472E-02 -8.28395975E-02 -2.14530527E-01
  6.31472597E-01  0.00000000E+00  0.00000000E+00  2.70667571E-03  0.00000000E+00
  0.00000000E+00  2.09715932E-02  0.00000000E+00  0.00000000E+00 -1.29314977E-02
 -1.87002053E-03  0.00000000E+00  0.00000000E+00  6.06607965E-17  0.00000000E+00
 -3.90435355E-04  0.00000000E+00  0.00000000E+00 -3.05001575E-16  0.00000000E+00
 -5.58705472E-02 -8.28395975E-02 -2.14530527E-01  6.31472597E-01  0.00000000E+00
  0.00000000E+00 -2.70667571E-03  0.00000000E+00  0.00000000E+00 -2.09715932E-02
  0.00000000E+00  0.00000000E+00  1.29314977E-02 -1.87002053E-03  0.00000000E+00
  0.00000000E+00  6.06607965E-17  0.00000000E+00 -3.90435355E-04  0.00000000E+00
  0.00000000E+00 -3.05001575E-16  0.00000000E+00  0.00000000E+00  0.00000000E+00
  0.00000000E+00  0.00000000E+00  0.00000000E+00  1.93479830E-02  0.00000000E+00
  0.00000000E+00  1.45039528E-04  0.00000000E+00  0.00000000E+00  5.09400238E-01
  0.00000000E+00  0.00000000E+00  0.00000000E+00 -1.83920039E-03  0.00000000E+00
  0.00000000E+00  0.00000000E+00  0.00000000E+00  5.38046261E-04  0.00000000E+00
  0.00000000E+00  0.00000000E+00  0.00000000E+00  0.00000000E+00  0.00000000E+00
  0.00000000E+00  1.93479830E-02  0.00000000E+00  0.00000000E+00  1.45039528E-04
  0.00000000E+00  0.00000000E+00  5.09400238E-01  0.00000000E+00  0.00000000E+00
  0.00000000E+00  1.83920039E-03  0.00000000E+00  0.00000000E+00  0.00000000E+00
  0.00000000E+00 -5.38046261E-04  0.00000000E+00  0.00000000E+00  0.00000000E+00
  0.00000000E+00  0.00000000E+00  0.00000000E+00  1.93479830E-02  0.00000000E+00
  0.00000000E+00  1.45039528E-04  0.00000000E+00  0.00000000E+00  5.09400238E-01
  0.00000000E+00  0.00000000E+00  0.00000000E+00 -1.83920039E-03  0.00000000E+00
  0.00000000E+00  0.00000000E+00  0.00000000E+00  5.38046261E-04  0.00000000E+00
  0.00000000E+00  0.00000000E+00  0.00000000E+00  0.00000000E+00  0.00000000E+00
  0.00000000E+00  1.93479830E-02  0.00000000E+00  0.00000000E+00  1.45039528E-04
  0.00000000E+00  0.00000000E+00  5.09400238E-01  0.00000000E+00  0.00000000E+00
  0.00000000E+00  1.83920039E-03  0.00000000E+00  0.00000000E+00  0.00000000E+00
  0.00000000E+00 -5.38046261E-04  0.00000000E+00  0.00000000E+00  0.00000000E+00
 -7.68978012E-02  8.36408937E-01  8.99628613E+00  5.12334564E+00  0.00000000E+00
  0.00000000E+00 -1.51749002E-02  0.00000000E+00  0.00000000E+00 -4.63271428E-01
  0.00000000E+00  0.00000000E+00 -2.71437473E+00  1.73552493E-02  0.00000000E+00
  0.00000000E+00  2.70385846E-16  0.00000000E+00  1.58160720E-01  0.00000000E+00
  0.00000000E+00 -1.18957991E-17  0.00000000E+00  7.68978012E-02 -8.36408937E-01
 -8.99628613E+00 -5.12334564E+00  0.00000000E+00  0.00000000E+00 -1.51749002E-02
  0.00000000E+00  0.00000000E+00 -4.63271428E-01  0.00000000E+00  0.00000000E+00
 -2.71437473E+00 -1.73552493E-02  0.00000000E+00  0.00000000E+00 -2.70385846E-16
  0.00000000E+00 -1.58160720E-01  0.00000000E+00  0.00000000E+00  1.18957991E-17
  0.00000000E+00 -3.99270406E-02  1.44478458E-01  8.12366829E-01 -4.63789195E-01
  0.00000000E+00  0.00000000E+00  3.76478816E-03  0.00000000E+00  0.00000000E+00
  1.01549026E-01  0.00000000E+00  0.00000000E+00  2.00483352E+00  6.12791925E-03
  0.00000000E+00  0.00000000E+00  1.04957009E-18  0.00000000E+00 -2.32138336E-01
  0.00000000E+00  0.00000000E+00  1.75553194E-16  0.00000000E+00 -3.99270406E-02
  1.44478458E-01  8.12366829E-01 -4.63789195E-01  0.00000000E+00  0.00000000E+00
 -3.76478816E-03  0.00000000E+00  0.00000000E+00 -1.01549026E-01  0.00000000E+00
  0.00000000E+00 -2.00483352E+00  6.12791925E-03  0.00000000E+00  0.00000000E+00
  1.04957009E-18  0.00000000E+00 -2.32138336E-01  0.00000000E+00  0.00000000E+00
  1.75553194E-16  0.00000000E+00  0.00000000E+00  0.00000000E+00  0.00000000E+00
  0.00000000E+00  0.00000000E+00 -1.25086694E-02  0.00000000E+00  0.00000000E+00
  3.07801902E-01  0.00000000E+00  0.00000000E+00  2.87258216E+00  0.00000000E+00
  0.00000000E+00  0.00000000E+00  1.80079811E-03  0.00000000E+00  0.00000000E+00
  0.00000000E+00  0.00000000E+00 -3.37496073E-01  0.00000000E+00  0.00000000E+00
  0.00000000E+00  0.00000000E+00  0.00000000E+00  0.00000000E+00  0.00000000E+00
  1.25086694E-02  0.00000000E+00  0.00000000E+00 -3.07801902E-01  0.00000000E+00
  0.00000000E+00 -2.87258216E+00  0.00000000E+00  0.00000000E+00  0.00000000E+00
  1.80079811E-03  0.00000000E+00  0.00000000E+00  0.00000000E+00  0.00000000E+00
 -3.37496073E-01  0.00000000E+00  0.00000000E+00  0.00000000E+00  0.00000000E+00
  0.00000000E+00  0.00000000E+00 -1.25086694E-02  0.00000000E+00  0.00000000E+00
  3.07801902E-01  0.00000000E+00  0.00000000E+00  2.87258216E+00  0.00000000E+00
  0.00000000E+00  0.00000000E+00  1.80079811E-03  0.00000000E+00  0.00000000E+00
  0.00000000E+00  0.00000000E+00 -3.37496073E-01  0.00000000E+00  0.00000000E+00
  0.00000000E+00  0.00000000E+00  0.00000000E+00  0.00000000E+00  0.00000000E+00
  1.25086694E-02  0.00000000E+00  0.00000000E+00 -3.07801902E-01  0.00000000E+00
  0.00000000E+00 -2.87258216E+00  0.00000000E+00  0.00000000E+00  0.00000000E+00
  1.80079811E-03  0.00000000E+00  0.00000000E+00  0.00000000E+00  0.00000000E+00
 -3.37496073E-01  0.00000000E+00  0.00000000E+00  0.00000000E+00  9.37743833E-02
  1.21365853E+00 -1.04949121E+00  3.28532341E-01  0.00000000E+00  0.00000000E+00
 -3.86732276E-02  0.00000000E+00  0.00000000E+00  2.39521594E-01  0.00000000E+00
  0.00000000E+00  1.40833278E+00 -7.66734462E-03  0.00000000E+00  0.00000000E+00
  8.22245506E-17  0.00000000E+00 -3.22664975E-01  0.00000000E+00  0.00000000E+00
 -5.49898584E-16  0.00000000E+00  9.37743833E-02  1.21365853E+00 -1.04949121E+00
  3.28532341E-01  0.00000000E+00  0.00000000E+00  3.86732276E-02  0.00000000E+00
  0.00000000E+00 -2.39521594E-01  0.00000000E+00  0.00000000E+00 -1.40833278E+00
 -7.66734462E-03  0.00000000E+00  0.00000000E+00  8.22245506E-17  0.00000000E+00
 -3.22664975E-01  0.00000000E+00  0.00000000E+00 -5.49898584E-16  0.00000000E+00
  1.03557635E-01  2.90841546E+00  5.29440863E+01  3.36403232E+00  0.00000000E+00
  0.00000000E+00  1.11634179E-02  0.00000000E+00  0.00000000E+00 -1.11206370E+00
  0.00000000E+00  0.00000000E+00 -1.32843707E+01  2.90440388E-02  0.00000000E+00
  0.00000000E+00  1.22876602E-15  0.00000000E+00  4.73694562E-01  0.00000000E+00
  0.00000000E+00 -6.19654862E-16  0.00000000E+00 -1.03557635E-01 -2.90841546E+00
 -5.29440863E+01 -3.36403232E+00  0.00000000E+00  0.00000000E+00  1.11634179E-02
  0.00000000E+00  0.00000000E+00 -1.11206370E+00  0.00000000E+00  0.00000000E+00
 -1.32843707E+01 -2.90440388E-02  0.00000000E+00  0.00000000E+00 -1.22876602E-15
  0.00000000E+00 -4.73694562E-01  0.00000000E+00  0.00000000E+00  6.19654862E-16
  0.00000000E+00 -9.79572036E-02 -6.36987404E+00  3.72858250E+01 -2.39111643E-01
  0.00000000E+00  0.00000000E+00  9.49864503E-02  0.00000000E+00  0.00000000E+00
  1.82667560E+00  0.00000000E+00  0.00000000E+00 -8.28218095E+00 -1.27579652E-01
  0.00000000E+00  0.00000000E+00  7.84767738E-16  0.00000000E+00 -6.17611342E-01
  0.00000000E+00  0.00000000E+00 -4.91183274E-15  0.00000000E+00  9.79572036E-02
  6.36987404E+00 -3.72858250E+01  2.39111643E-01  0.00000000E+00  0.00000000E+00
  9.49864503E-02  0.00000000E+00  0.00000000E+00  1.82667560E+00  0.00000000E+00
  0.00000000E+00 -8.28218095E+00  1.27579652E-01  0.00000000E+00  0.00000000E+00
 -7.84767738E-16  0.00000000E+00  6.17611342E-01  0.00000000E+00  0.00000000E+00
  4.91183274E-15  0.00000000E+00  0.00000000E+00  0.00000000E+00  0.00000000E+00
  0.00000000E+00  0.00000000E+00  0.00000000E+00  0.00000000E+00  0.00000000E+00
  0.00000000E+00  0.00000000E+00  0.00000000E+00  0.00000000E+00  0.00000000E+00
  0.00000000E+00  0.00000000E+00  0.00000000E+00  0.00000000E+00 -3.69786469E-02
  0.00000000E+00  0.00000000E+00  0.00000000E+00  0.00000000E+00  5.44806520E-01
  0.00000000E+00  0.00000000E+00  0.00000000E+00  0.00000000E+00  0.00000000E+00
  0.00000000E+00  0.00000000E+00  0.00000000E+00  0.00000000E+00  0.00000000E+00
  0.00000000E+00  0.00000000E+00  0.00000000E+00  0.00000000E+00  0.00000000E+00
  0.00000000E+00  0.00000000E+00 -3.69786469E-02  0.00000000E+00  0.00000000E+00
  0.00000000E+00  0.00000000E+00  5.44806520E-01  9.73314474E-17  5.12076312E-15
 -3.16507313E-15  9.09868216E-16  0.00000000E+00  0.00000000E+00 -2.06949975E-16
  0.00000000E+00  0.00000000E+00  1.56531626E-15  0.00000000E+00  0.00000000E+00
  6.76538790E-15  4.77231739E-18  0.00000000E+00  0.00000000E+00 -3.69786469E-02
  0.00000000E+00 -4.10893327E-15  0.00000000E+00  0.00000000E+00  5.44806520E-01
  0.00000000E+00  9.73314474E-17  5.12076312E-15 -3.16507313E-15  9.09868216E-16
  0.00000000E+00  0.00000000E+00  2.06949975E-16  0.00000000E+00  0.00000000E+00
 -1.56531626E-15  0.00000000E+00  0.00000000E+00 -6.76538790E-15  4.77231739E-18
  0.00000000E+00  0.00000000E+00 -3.69786469E-02  0.00000000E+00 -4.10893327E-15
  0.00000000E+00  0.00000000E+00  5.44806520E-01  0.00000000E+00  0.00000000E+00
  0.00000000E+00  0.00000000E+00  0.00000000E+00  0.00000000E+00 -3.48969660E-02
  0.00000000E+00  0.00000000E+00  6.42973006E-01  0.00000000E+00  0.00000000E+00
 -4.00447125E-01  0.00000000E+00  0.00000000E+00  0.00000000E+00  1.16035347E-02
  0.00000000E+00  0.00000000E+00  0.00000000E+00  0.00000000E+00 -1.70759284E-01
  0.00000000E+00  0.00000000E+00  0.00000000E+00  0.00000000E+00  0.00000000E+00
  0.00000000E+00  0.00000000E+00 -3.48969660E-02  0.00000000E+00  0.00000000E+00
  6.42973006E-01  0.00000000E+00  0.00000000E+00 -4.00447125E-01  0.00000000E+00
  0.00000000E+00  0.00000000E+00 -1.16035347E-02  0.00000000E+00  0.00000000E+00
  0.00000000E+00  0.00000000E+00  1.70759284E-01  0.00000000E+00  0.00000000E+00
  0.00000000E+00  0.00000000E+00  0.00000000E+00  0.00000000E+00 -3.48969660E-02
  0.00000000E+00  0.00000000E+00  6.42973006E-01  0.00000000E+00  0.00000000E+00
 -4.00447125E-01  0.00000000E+00  0.00000000E+00  0.00000000E+00  1.16035347E-02
  0.00000000E+00  0.00000000E+00  0.00000000E+00  0.00000000E+00 -1.70759284E-01
  0.00000000E+00  0.00000000E+00  0.00000000E+00  0.00000000E+00  0.00000000E+00
  0.00000000E+00  0.00000000E+00 -3.48969660E-02  0.00000000E+00  0.00000000E+00
  6.42973006E-01  0.00000000E+00  0.00000000E+00 -4.00447125E-01  0.00000000E+00
  0.00000000E+00  0.00000000E+00 -1.16035347E-02  0.00000000E+00  0.00000000E+00
  0.00000000E+00  0.00000000E+00  1.70759284E-01  0.00000000E+00  0.00000000E+00
  0.00000000E+00  0.00000000E+00  0.00000000E+00  0.00000000E+00  0.00000000E+00
  0.00000000E+00 -6.14034105E-02  0.00000000E+00  0.00000000E+00  9.04347936E-01
  0.00000000E+00  0.00000000E+00  2.75263570E+00  0.00000000E+00  0.00000000E+00
  0.00000000E+00 -9.58804995E-03  0.00000000E+00  0.00000000E+00  0.00000000E+00
  0.00000000E+00 -1.39903353E+00  0.00000000E+00  0.00000000E+00  0.00000000E+00
  0.00000000E+00  0.00000000E+00  0.00000000E+00  0.00000000E+00  6.14034105E-02
  0.00000000E+00  0.00000000E+00 -9.04347936E-01  0.00000000E+00  0.00000000E+00
 -2.75263570E+00  0.00000000E+00  0.00000000E+00  0.00000000E+00 -9.58804995E-03
  0.00000000E+00  0.00000000E+00  0.00000000E+00  0.00000000E+00 -1.39903353E+00
  0.00000000E+00  0.00000000E+00  0.00000000E+00  0.00000000E+00  0.00000000E+00
  0.00000000E+00 -6.14034105E-02  0.00000000E+00  0.00000000E+00  9.04347936E-01
  0.00000000E+00  0.00000000E+00  2.75263570E+00  0.00000000E+00  0.00000000E+00
  0.00000000E+00 -9.58804995E-03  0.00000000E+00  0.00000000E+00  0.00000000E+00
  0.00000000E+00 -1.39903353E+00  0.00000000E+00  0.00000000E+00  0.00000000E+00
  0.00000000E+00  0.00000000E+00  0.00000000E+00  0.00000000E+00  6.14034105E-02
  0.00000000E+00  0.00000000E+00 -9.04347936E-01  0.00000000E+00  0.00000000E+00
 -2.75263570E+00  0.00000000E+00  0.00000000E+00  0.00000000E+00 -9.58804995E-03
  0.00000000E+00  0.00000000E+00  0.00000000E+00  0.00000000E+00 -1.39903353E+00
  0.00000000E+00  0.00000000E+00  0.00000000E+00  1.26292034E-02  9.70161300E-01
 -7.71479706E-02 -1.51986095E-01  0.00000000E+00  0.00000000E+00 -3.60535154E-02
  0.00000000E+00  0.00000000E+00  1.89040718E-01  0.00000000E+00  0.00000000E+00
  2.19778310E+00  1.04730500E-02  0.00000000E+00  0.00000000E+00 -8.19633161E-18
  0.00000000E+00 -1.18586961E+00  0.00000000E+00  0.00000000E+00 -1.48402479E-15
  0.00000000E+00  1.26292034E-02  9.70161300E-01 -7.71479706E-02 -1.51986095E-01
  0.00000000E+00  0.00000000E+00  3.60535154E-02  0.00000000E+00  0.00000000E+00
 -1.89040718E-01  0.00000000E+00  0.00000000E+00 -2.19778310E+00  1.04730500E-02
  0.00000000E+00  0.00000000E+00 -8.19633161E-18  0.00000000E+00 -1.18586961E+00
  0.00000000E+00  0.00000000E+00 -1.48402479E-15  0.00000000E+00 -1.29262488E-01
  1.09314225E+01  4.61576687E+01  1.87398858E+00  0.00000000E+00  0.00000000E+00
 -6.59525259E-02  0.00000000E+00  0.00000000E+00 -4.64074399E+00  0.00000000E+00
  0.00000000E+00 -1.13674227E+01  1.68461952E-01  0.00000000E+00  0.00000000E+00
 -2.65806299E-14  0.00000000E+00  2.15548103E+00  0.00000000E+00  0.00000000E+00
  8.41452396E-13  0.00000000E+00  1.29262488E-01 -1.09314225E+01 -4.61576687E+01
 -1.87398858E+00  0.00000000E+00  0.00000000E+00 -6.59525259E-02  0.00000000E+00
  0.00000000E+00 -4.64074399E+00  0.00000000E+00  0.00000000E+00 -1.13674227E+01
 -1.68461952E-01  0.00000000E+00  0.00000000E+00  2.65806299E-14  0.00000000E+00
 -2.15548103E+00  0.00000000E+00  0.00000000E+00 -8.41452396E-13  0.00000000E+00
  0.00000000E+00  0.00000000E+00  0.00000000E+00  0.00000000E+00  0.00000000E+00
  0.00000000E+00  0.00000000E+00  0.00000000E+00  0.00000000E+00  0.00000000E+00
  0.00000000E+00  0.00000000E+00  0.00000000E+00  0.00000000E+00  0.00000000E+00
  0.00000000E+00  0.00000000E+00 -5.04878876E-02  0.00000000E+00  0.00000000E+00
  0.00000000E+00  0.00000000E+00  1.51911953E+00  0.00000000E+00  0.00000000E+00
  0.00000000E+00  0.00000000E+00  0.00000000E+00  0.00000000E+00  0.00000000E+00
  0.00000000E+00  0.00000000E+00  0.00000000E+00  0.00000000E+00  0.00000000E+00
  0.00000000E+00  0.00000000E+00  0.00000000E+00  0.00000000E+00  0.00000000E+00
  5.04878876E-02  0.00000000E+00  0.00000000E+00  0.00000000E+00  0.00000000E+00
 -1.51911953E+00  7.14912087E-14 -6.02471526E-12 -2.54701773E-11 -1.04141957E-12
  0.00000000E+00  0.00000000E+00  3.62773004E-14  0.00000000E+00  0.00000000E+00
  2.55308862E-12  0.00000000E+00  0.00000000E+00  6.27515293E-12 -9.24644905E-14
  0.00000000E+00  0.00000000E+00 -5.04878876E-02  0.00000000E+00 -1.19383992E-12
  0.00000000E+00  0.00000000E+00  1.51911953E+00  0.00000000E+00 -7.14912087E-14
  6.02471526E-12  2.54701773E-11  1.04141957E-12  0.00000000E+00  0.00000000E+00
  3.62773004E-14  0.00000000E+00  0.00000000E+00  2.55308862E-12  0.00000000E+00
  0.00000000E+00  6.27515293E-12  9.24644905E-14  0.00000000E+00  0.00000000E+00
  5.04878876E-02  0.00000000E+00  1.19383992E-12  0.00000000E+00  0.00000000E+00
 -1.51911953E+00  0.00000000E+00  0.00000000E+00  0.00000000E+00  0.00000000E+00
  0.00000000E+00  0.00000000E+00 -4.40588222E-02  0.00000000E+00  0.00000000E+00
  6.02138449E-01  0.00000000E+00  0.00000000E+00 -1.73028814E-01  0.00000000E+00
  0.00000000E+00  0.00000000E+00 -3.32518855E-02  0.00000000E+00  0.00000000E+00
  0.00000000E+00  0.00000000E+00  1.13428658E+00  0.00000000E+00  0.00000000E+00
  0.00000000E+00  0.00000000E+00  0.00000000E+00  0.00000000E+00  0.00000000E+00
 -4.40588222E-02  0.00000000E+00  0.00000000E+00  6.02138449E-01  0.00000000E+00
  0.00000000E+00 -1.73028814E-01  0.00000000E+00  0.00000000E+00  0.00000000E+00
  3.32518855E-02  0.00000000E+00  0.00000000E+00  0.00000000E+00  0.00000000E+00
 -1.13428658E+00  0.00000000E+00  0.00000000E+00  0.00000000E+00  0.00000000E+00
  0.00000000E+00  0.00000000E+00 -4.40588222E-02  0.00000000E+00  0.00000000E+00
  6.02138449E-01  0.00000000E+00  0.00000000E+00 -1.73028814E-01  0.00000000E+00
  0.00000000E+00  0.00000000E+00 -3.32518855E-02  0.00000000E+00  0.00000000E+00
  0.00000000E+00  0.00000000E+00  1.13428658E+00  0.00000000E+00  0.00000000E+00
  0.00000000E+00  0.00000000E+00  0.00000000E+00  0.00000000E+00  0.00000000E+00
 -4.40588222E-02  0.00000000E+00  0.00000000E+00  6.02138449E-01  0.00000000E+00
  0.00000000E+00 -1.73028814E-01  0.00000000E+00  0.00000000E+00  0.00000000E+00
  3.32518855E-02  0.00000000E+00  0.00000000E+00  0.00000000E+00  0.00000000E+00
 -1.13428658E+00  0.00000000E+00  0.00000000E+00  0.00000000E+00 -1.91155214E-01
  2.18825312E+00 -1.15761665E+00  1.58390504E-01  0.00000000E+00  0.00000000E+00
 -8.67245977E-02  0.00000000E+00  0.00000000E+00  1.64098723E+00  0.00000000E+00
  0.00000000E+00  1.29891121E+00 -5.93063724E-02  0.00000000E+00  0.00000000E+00
 -7.65374172E-18  0.00000000E+00 -1.18548906E+00  0.00000000E+00  0.00000000E+00
 -2.34725861E-16  0.00000000E+00 -1.91155214E-01  2.18825312E+00 -1.15761665E+00
  1.58390504E-01  0.00000000E+00  0.00000000E+00  8.67245977E-02  0.00000000E+00
  0.00000000E+00 -1.64098723E+00  0.00000000E+00  0.00000000E+00 -1.29891121E+00
 -5.93063724E-02  0.00000000E+00  0.00000000E+00 -7.65374172E-18  0.00000000E+00
 -1.18548906E+00  0.00000000E+00  0.00000000E+00 -2.34725861E-16  0.00000000E+00
  0.00000000E+00  0.00000000E+00  0.00000000E+00  0.00000000E+00  0.00000000E+00