fubar                                                                   
SP        RSVWN                                                       Aug-CC-pVTZ         
Number of atoms                            I                3
Info1-9                                    I   N=           9
          13          12           0           0           0         110
           1          18         502
Full Title                                 C   N=           1
fubar       
Route                                      C   N=           4
#LSDA/aug-cc-pVTZ scf=tight maxdisk=1000GB      
Charge                                     I                0
Multiplicity                               I                1
Number of electrons                        I               10
Number of alpha electrons                  I                5
Number of beta electrons                   I                5
Number of basis functions                  I               92
Number of independent functions            I               92
Number of point charges in /Mol/           I                0
Number of translation vectors              I                0
Atomic numbers                             I   N=           3
           8           1           1
Nuclear charges                            R   N=           3
  8.00000000E+00  1.00000000E+00  1.00000000E+00
Current cartesian coordinates              R   N=           9
  1.36301282E-17  1.36301282E-17  2.22596508E-01  2.10765443E-16  1.44414948E+00
 -8.90387923E-01 -4.96663773E-16 -1.44414948E+00 -8.90387923E-01
Number of symbols in /Mol/                 I                0
Int Atom Types                             I   N=           3
           0           0           0
Force Field                                I                0
Atom Types                                 C   N=           3
                                    
MM charges                                 R   N=           3
  0.00000000E+00  0.00000000E+00  0.00000000E+00
Integer atomic weights                     I   N=           3
          16           1           1
Real atomic weights                        R   N=           3
  1.59949146E+01  1.00782504E+00  1.00782504E+00
Atom fragment info                         I   N=           3
           0           0           0
Atom residue num                           I   N=           3
           0           0           0
Nuclear spins                              I   N=           3
           0           1           1
Nuclear ZEff                               R   N=           3
 -5.60000000E+00 -1.00000000E+00 -1.00000000E+00
Nuclear ZNuc                               R   N=           3
  8.00000000E+00  1.00000000E+00  1.00000000E+00
Nuclear QMom                               R   N=           3
  0.00000000E+00  0.00000000E+00  0.00000000E+00
Nuclear GFac                               R   N=           3
  0.00000000E+00  2.79284600E+00  2.79284600E+00
MicOpt                                     I   N=           3
          -1          -1          -1
Number of residues                         I                0
Number of secondary structures             I                0
SymInf integers                            I   N=          26
           2           4           1           1           1          -1
          -1           1          -1           1           1           1
          -1           1           0           0           0           0
           0           0           0           0           0           0
           0           0
RotTr to input orientation                 R   N=          12
  1.00000000E+00 -1.83697020E-16 -6.12323400E-17  1.83697020E-16  1.00000000E+00
 -6.12323400E-17  6.12323400E-17  6.12323400E-17  1.00000000E+00  0.00000000E+00
  0.00000000E+00 -3.78209787E-07
Number of contracted shells                I               32
Number of primitive shells                 I               49
Pure/Cartesian d shells                    I                0
Pure/Cartesian f shells                    I                0
Highest angular momentum                   I                3
Largest degree of contraction              I                7
Shell types                                I   N=          32
           0           0           0           0           0           1
           1           1           1          -2          -2          -2
          -3          -3           0           0           0           0
           1           1           1          -2          -2           0
           0           0           0           1           1           1
          -2          -2
Number of primitives per shell             I   N=          32
           7           6           1           1           1           3
           1           1           1           1           1           1
           1           1           3           1           1           1
           1           1           1           1           1           3
           1           1           1           1           1           1
           1           1
Shell to atom map                          I   N=          32
           1           1           1           1           1           1
           1           1           1           1           1           1
           1           1           2           2           2           2
           2           2           2           2           2           3
           3           3           3           3           3           3
           3           3
Primitive exponents                        R   N=          49
  1.53300000E+04  2.29900000E+03  5.22400000E+02  1.47300000E+02  4.75500000E+01
  1.67600000E+01  6.20700000E+00  5.22400000E+02  1.47300000E+02  4.75500000E+01
  1.67600000E+01  6.20700000E+00  6.88200000E-01  1.75200000E+00  2.38400000E-01
  7.37600000E-02  3.44600000E+01  7.74900000E+00  2.28000000E+00  7.15600000E-01
  2.14000000E-01  5.97400000E-02  2.31400000E+00  6.45000000E-01  2.14000000E-01
  1.42800000E+00  5.00000000E-01  3.38700000E+01  5.09500000E+00  1.15900000E+00
  3.25800000E-01  1.02700000E-01  2.52600000E-02  1.40700000E+00  3.88000000E-01
  1.02000000E-01  1.05700000E+00  2.47000000E-01  3.38700000E+01  5.09500000E+00
  1.15900000E+00  3.25800000E-01  1.02700000E-01  2.52600000E-02  1.40700000E+00
  3.88000000E-01  1.02000000E-01  1.05700000E+00  2.47000000E-01
Contraction coefficients                   R   N=          49
  5.19808943E-04  4.02025621E-03  2.07128267E-02  8.10105536E-02  2.35962985E-01
  4.42653446E-01  3.57064423E-01 -4.42115008E-05 -1.22591041E-03 -1.05517725E-02
 -6.74452633E-02 -1.71198607E-01  1.07329856E+00  1.00000000E+00  1.00000000E+00
  1.00000000E+00  4.11634896E-02  2.57762836E-01  8.02419274E-01  1.00000000E+00
  1.00000000E+00  1.00000000E+00  1.00000000E+00  1.00000000E+00  1.00000000E+00
  1.00000000E+00  1.00000000E+00  2.54948632E-02  1.90362766E-01  8.52162022E-01
  1.00000000E+00  1.00000000E+00  1.00000000E+00  1.00000000E+00  1.00000000E+00
  1.00000000E+00  1.00000000E+00  1.00000000E+00  2.54948632E-02  1.90362766E-01
  8.52162022E-01  1.00000000E+00  1.00000000E+00  1.00000000E+00  1.00000000E+00
  1.00000000E+00  1.00000000E+00  1.00000000E+00  1.00000000E+00
Coordinates of each shell                  R   N=          96
  6.85929614E-34 -1.37185923E-33  2.22596886E-01  6.85929614E-34 -1.37185923E-33
  2.22596886E-01  6.85929614E-34 -1.37185923E-33  2.22596886E-01  6.85929614E-34
 -1.37185923E-33  2.22596886E-01  6.85929614E-34 -1.37185923E-33  2.22596886E-01
  6.85929614E-34 -1.37185923E-33  2.22596886E-01  6.85929614E-34 -1.37185923E-33
  2.22596886E-01  6.85929614E-34 -1.37185923E-33  2.22596886E-01  6.85929614E-34
 -1.37185923E-33  2.22596886E-01  6.85929614E-34 -1.37185923E-33  2.22596886E-01
  6.85929614E-34 -1.37185923E-33  2.22596886E-01  6.85929614E-34 -1.37185923E-33
  2.22596886E-01  6.85929614E-34 -1.37185923E-33  2.22596886E-01  6.85929614E-34
 -1.37185923E-33  2.22596886E-01  0.00000000E+00  1.44414948E+00 -8.90387544E-01
  0.00000000E+00  1.44414948E+00 -8.90387544E-01  0.00000000E+00  1.44414948E+00
 -8.90387544E-01  0.00000000E+00  1.44414948E+00 -8.90387544E-01  0.00000000E+00
  1.44414948E+00 -8.90387544E-01  0.00000000E+00  1.44414948E+00 -8.90387544E-01
  0.00000000E+00  1.44414948E+00 -8.90387544E-01  0.00000000E+00  1.44414948E+00
 -8.90387544E-01  0.00000000E+00  1.44414948E+00 -8.90387544E-01 -1.76857304E-16
 -1.44414948E+00 -8.90387544E-01 -1.76857304E-16 -1.44414948E+00 -8.90387544E-01
 -1.76857304E-16 -1.44414948E+00 -8.90387544E-01 -1.76857304E-16 -1.44414948E+00
 -8.90387544E-01 -1.76857304E-16 -1.44414948E+00 -8.90387544E-01 -1.76857304E-16
 -1.44414948E+00 -8.90387544E-01 -1.76857304E-16 -1.44414948E+00 -8.90387544E-01
 -1.76857304E-16 -1.44414948E+00 -8.90387544E-01 -1.76857304E-16 -1.44414948E+00
 -8.90387544E-01
Num ILSW                                   I              100
ILSW                                       I   N=         100
           0           0           0           0           2           0
           0           0           0           0         205134217728000
           5           0           0           0           0           0
           0           0           1           0           0           0
           1           0           0           0           0           0
           0           0      100000           0          -1           0
           0           0           0           0           0           0
           0           0           0           1           0           0
           0 -2000000000           1           0           0           0
           0           0           4          52           0           0
           0           0           0           0           0           0
           0           0           0           0           0           1
           0           0           0           0           0           0
           0           0           0           0           0           0
           0           0           0           0           0           0
           0           0           0           0           0           0
           0           0           0           0
Num RLSW                                   I               52
RLSW                                       R   N=          52
  1.00000000E+00  1.00000000E+00  1.00000000E+00  1.00000000E+00  0.00000000E+00
  0.00000000E+00  0.00000000E+00  1.00000000E+00  0.00000000E+00  0.00000000E+00
  0.00000000E+00  0.00000000E+00  1.00000000E+00  0.00000000E+00  0.00000000E+00
  0.00000000E+00  0.00000000E+00  1.00000000E+00  0.00000000E+00  0.00000000E+00
  0.00000000E+00  0.00000000E+00  1.00000000E+00  0.00000000E+00  0.00000000E+00
  0.00000000E+00  0.00000000E+00  1.00000000E+00  0.00000000E+00  0.00000000E+00
  0.00000000E+00  0.00000000E+00  1.00000000E+00  0.00000000E+00  0.00000000E+00
  0.00000000E+00  0.00000000E+00  0.00000000E+00  1.00000000E+00  1.00000000E+00
  0.00000000E+00  1.00000000E+00  0.00000000E+00  0.00000000E+00  0.00000000E+00
  0.00000000E+00  0.00000000E+00  0.00000000E+00  0.00000000E+00  0.00000000E+00
  0.00000000E+00  0.00000000E+00
MxBond                                     I                2
NBond                                      I   N=           3
           2           1           1
IBond                                      I   N=           6
           2           3           1           0           1           0
RBond                                      R   N=           6
  1.00000000E+00  1.00000000E+00  1.00000000E+00  0.00000000E+00  1.00000000E+00
  0.00000000E+00
Virial Ratio                               R      2.008680735738017E+00
SCF Energy                                 R     -7.610053864336599E+01
Total Energy                               R     -7.610053864336599E+01
RMS Density                                R      9.166360685667392E-09
Job Status                                 I                1
Nuclear derivative order                   I                0
External E-field                           R   N=          35
  0.00000000E+00  0.00000000E+00  0.00000000E+00  0.00000000E+00  0.00000000E+00
  0.00000000E+00  0.00000000E+00  0.00000000E+00  0.00000000E+00  0.00000000E+00
  0.00000000E+00  0.00000000E+00  0.00000000E+00  0.00000000E+00  0.00000000E+00
  0.00000000E+00  0.00000000E+00  0.00000000E+00  0.00000000E+00  0.00000000E+00
  0.00000000E+00  0.00000000E+00  0.00000000E+00  0.00000000E+00  0.00000000E+00
  0.00000000E+00  0.00000000E+00  0.00000000E+00  0.00000000E+00  0.00000000E+00
  0.00000000E+00  0.00000000E+00  0.00000000E+00  0.00000000E+00  0.00000000E+00
IOpCl                                      I                0
IROHF                                      I                0
Alpha Orbital Energies                     R   N=          92
 -1.86316629E+01 -9.42008865E-01 -5.03812827E-01 -3.62701643E-01 -2.88913865E-01
 -4.65728013E-02  9.86744721E-03  6.15894323E-02  7.87456851E-02  8.62526485E-02
  9.21398694E-02  1.34940170E-01  1.49820578E-01  1.71553571E-01  1.97189527E-01
  2.00657905E-01  2.93686938E-01  3.02967257E-01  3.15200431E-01  4.40906913E-01
  4.78078230E-01  5.26963943E-01  5.46122072E-01  5.48795230E-01  6.37625003E-01
  6.66499969E-01  6.83157332E-01  7.15044656E-01  7.17334600E-01  7.46362126E-01
  7.71469635E-01  7.74702113E-01  8.41849021E-01  8.47601306E-01  8.64591849E-01
  9.49451065E-01  9.96988362E-01  1.00847525E+00  1.06205627E+00  1.26948793E+00
  1.30125380E+00  1.32661646E+00  1.51013139E+00  1.55525518E+00  1.66879321E+00
  1.78159297E+00  1.90825171E+00  1.96437778E+00  1.98849431E+00  2.04328252E+00
  2.08348798E+00  2.09494689E+00  2.13905120E+00  2.34547770E+00  2.35273514E+00
  2.39763922E+00  2.49133461E+00  2.53183553E+00  3.22997268E+00  3.32388452E+00
  3.52175085E+00  3.62241231E+00  3.78146662E+00  3.85070582E+00  3.90125005E+00
  3.97924660E+00  3.98927709E+00  3.99716402E+00  4.05193987E+00  4.18711436E+00
  4.33073352E+00  4.69544225E+00  4.71904448E+00  4.79015815E+00  4.80784050E+00
  4.99319663E+00  5.17319329E+00  5.59590206E+00  5.93451059E+00  6.11693950E+00
  6.29297928E+00  6.51882819E+00  6.59497238E+00  6.65505105E+00  6.68196301E+00
  6.69800455E+00  6.71076320E+00  6.89428739E+00  7.25360428E+00  7.27778073E+00
  8.11030872E+00  1.46970810E+01
Alpha MO coefficients                      R   N=        8464
  9.65112243E-01 -2.87364299E-02  6.50176316E-02  6.25656491E-03  3.24657171E-03
  0.00000000E+00  0.00000000E+00 -1.90952999E-03  0.00000000E+00  0.00000000E+00
  4.11684562E-03  0.00000000E+00  0.00000000E+00 -4.73309665E-03  0.00000000E+00
  0.00000000E+00 -1.04292880E-03 -5.80467680E-05  0.00000000E+00  0.00000000E+00
 -1.73711244E-04  0.00000000E+00  3.52590073E-04  0.00000000E+00  0.00000000E+00
  1.56081751E-03  0.00000000E+00  9.74107344E-04  0.00000000E+00  0.00000000E+00
 -1.72504378E-03  0.00000000E+00 -2.97239542E-04  0.00000000E+00  0.00000000E+00
 -7.05663188E-04  0.00000000E+00  0.00000000E+00  0.00000000E+00 -1.49190164E-05
  0.00000000E+00  0.00000000E+00  6.03343726E-04  0.00000000E+00  0.00000000E+00
  0.00000000E+00  6.24019804E-04  3.80197917E-04 -1.80329158E-03 -1.19894367E-05
  0.00000000E+00 -7.80943547E-04  5.70842392E-04  0.00000000E+00 -1.93232139E-03
  2.68402487E-03  0.00000000E+00 -3.82063837E-04  4.79094729E-04  1.56862274E-04
  0.00000000E+00 -5.49944084E-04 -2.38401068E-04  0.00000000E+00  3.45511028E-04
  0.00000000E+00 -1.71607385E-03 -8.22106767E-04  0.00000000E+00  6.24019804E-04
  3.80197917E-04 -1.80329158E-03 -1.19894367E-05  0.00000000E+00  7.80943547E-04
  5.70842392E-04  0.00000000E+00  1.93232139E-03  2.68402487E-03  0.00000000E+00
  3.82063837E-04  4.79094729E-04  1.56862274E-04  0.00000000E+00  5.49944084E-04
 -2.38401068E-04  0.00000000E+00  3.45511028E-04  0.00000000E+00  1.71607385E-03
 -8.22106767E-04  0.00000000E+00 -2.04557453E-01  4.65034351E-01  1.36979337E-01
  2.73579517E-01  2.98804473E-02  0.00000000E+00  0.00000000E+00 -7.28215326E-02
  0.00000000E+00  0.00000000E+00 -8.49719157E-02  0.00000000E+00  0.00000000E+00
 -2.24430791E-02  0.00000000E+00  0.00000000E+00 -2.10007896E-03  1.48555458E-03
  0.00000000E+00  0.00000000E+00 -4.43186447E-03  0.00000000E+00  4.74999700E-03
  0.00000000E+00  0.00000000E+00 -8.10104710E-03  0.00000000E+00  1.26176858E-03
  0.00000000E+00  0.00000000E+00  3.49414234E-03  0.00000000E+00  3.68910445E-04
  0.00000000E+00  0.00000000E+00  1.83944124E-03  0.00000000E+00  0.00000000E+00
  0.00000000E+00 -1.50175182E-03  0.00000000E+00  0.00000000E+00 -1.04898267E-03
  0.00000000E+00  0.00000000E+00  0.00000000E+00  9.36547859E-02  8.60889546E-02
 -7.29248639E-03 -1.35172697E-03  0.00000000E+00 -1.08252346E-02  7.24283122E-03
  0.00000000E+00 -9.90806329E-03  6.34328082E-03  0.00000000E+00  4.14822278E-03
 -3.26205020E-03  7.75091877E-05  0.00000000E+00 -2.42238557E-03 -1.65493846E-03
  0.00000000E+00  4.31626581E-05  0.00000000E+00  1.28135336E-03  5.57985587E-04
  0.00000000E+00  9.36547859E-02  8.60889546E-02 -7.29248639E-03 -1.35172697E-03
  0.00000000E+00  1.08252346E-02  7.24283122E-03  0.00000000E+00  9.90806329E-03
  6.34328082E-03  0.00000000E+00 -4.14822278E-03 -3.26205020E-03  7.75091877E-05
  0.00000000E+00  2.42238557E-03 -1.65493846E-03  0.00000000E+00  4.31626581E-05
  0.00000000E+00 -1.28135336E-03  5.57985587E-04  0.00000000E+00  0.00000000E+00
  0.00000000E+00  0.00000000E+00  0.00000000E+00  0.00000000E+00  0.00000000E+00
  3.06203579E-01  0.00000000E+00  0.00000000E+00  3.19286976E-01  0.00000000E+00
  0.00000000E+00  1.32536527E-01  0.00000000E+00  0.00000000E+00  6.05885062E-03
  0.00000000E+00  0.00000000E+00  0.00000000E+00 -1.05050297E-02  0.00000000E+00
  0.00000000E+00  0.00000000E+00  0.00000000E+00 -1.06385739E-02  0.00000000E+00
  0.00000000E+00  0.00000000E+00  0.00000000E+00  7.62862400E-03  0.00000000E+00
  0.00000000E+00  0.00000000E+00  0.00000000E+00 -9.35391704E-04  0.00000000E+00
  0.00000000E+00  0.00000000E+00 -2.12503486E-03  0.00000000E+00  0.00000000E+00
  7.31722955E-04  0.00000000E+00  0.00000000E+00  0.00000000E+00 -1.12190158E-03
  1.42595653E-01  2.38262177E-01  6.95779819E-02 -1.63776715E-03  0.00000000E+00
 -9.10763699E-03  1.25102492E-02  0.00000000E+00 -2.06365671E-02  2.97008437E-02
  0.00000000E+00  2.14664716E-03  4.11664953E-03  2.11528792E-03  0.00000000E+00
 -6.90795881E-03 -3.49764165E-03  0.00000000E+00  1.78422862E-03  0.00000000E+00
 -3.78128806E-03  3.26325027E-04  0.00000000E+00 -1.42595653E-01 -2.38262177E-01
 -6.95779819E-02  1.63776715E-03  0.00000000E+00 -9.10763699E-03 -1.25102492E-02
  0.00000000E+00 -2.06365671E-02 -2.97008437E-02  0.00000000E+00  2.14664716E-03
 -4.11664953E-03 -2.11528792E-03  0.00000000E+00 -6.90795881E-03  3.49764165E-03
  0.00000000E+00 -1.78422862E-03  0.00000000E+00 -3.78128806E-03 -3.26325027E-04
  0.00000000E+00 -7.78024399E-02  1.93358804E-01  5.67847670E-02  3.70239391E-01
  1.17379601E-01  0.00000000E+00  0.00000000E+00  3.24223484E-01  0.00000000E+00
  0.00000000E+00  3.54592688E-01  0.00000000E+00  0.00000000E+00  2.02226551E-01
  0.00000000E+00  0.00000000E+00  2.02035490E-02 -6.16354180E-03  0.00000000E+00
  0.00000000E+00  1.66246544E-03  0.00000000E+00 -1.57307944E-02  0.00000000E+00
  0.00000000E+00 -5.91822173E-03  0.00000000E+00 -5.99611097E-03  0.00000000E+00
  0.00000000E+00 -1.31295727E-02  0.00000000E+00  8.67865951E-04  0.00000000E+00
  0.00000000E+00 -1.92451476E-03  0.00000000E+00  0.00000000E+00  0.00000000E+00
  1.71934875E-03  0.00000000E+00  0.00000000E+00  1.10971322E-03  0.00000000E+00
  0.00000000E+00  0.00000000E+00 -8.13477857E-02 -1.81495791E-01 -8.57557058E-02
 -3.81801607E-03  0.00000000E+00  8.94342332E-03  2.60745407E-03  0.00000000E+00
  3.35972837E-02  1.75564231E-03  0.00000000E+00  7.69752290E-03  1.23169915E-02
  2.27194820E-03  0.00000000E+00  2.02291075E-03  3.58519334E-03  0.00000000E+00
  1.21860663E-03  0.00000000E+00 -1.14577839E-03  2.64205884E-03  0.00000000E+00
 -8.13477857E-02 -1.81495791E-01 -8.57557058E-02 -3.81801607E-03  0.00000000E+00
 -8.94342332E-03  2.60745407E-03  0.00000000E+00 -3.35972837E-02  1.75564231E-03
  0.00000000E+00 -7.69752290E-03  1.23169915E-02  2.27194820E-03  0.00000000E+00
 -2.02291075E-03  3.58519334E-03  0.00000000E+00  1.21860663E-03  0.00000000E+00
  1.14577839E-03  2.64205884E-03  0.00000000E+00  0.00000000E+00  0.00000000E+00
  0.00000000E+00  0.00000000E+00  0.00000000E+00  3.66379214E-01  0.00000000E+00
  0.00000000E+00  4.22919831E-01  0.00000000E+00  0.00000000E+00  3.22932076E-01
  0.00000000E+00  0.00000000E+00  5.17206623E-02  0.00000000E+00  0.00000000E+00
  0.00000000E+00 -6.16249278E-03  0.00000000E+00  0.00000000E+00  0.00000000E+00
  0.00000000E+00 -1.43281444E-02  0.00000000E+00  0.00000000E+00  0.00000000E+00
  0.00000000E+00 -7.90644419E-03  0.00000000E+00  0.00000000E+00  0.00000000E+00
  0.00000000E+00  1.27994446E-03  0.00000000E+00  0.00000000E+00  0.00000000E+00
 -3.26585514E-03  0.00000000E+00  0.00000000E+00  8.29749964E-04  0.00000000E+00
  0.00000000E+00  0.00000000E+00 -1.00908029E-03  0.00000000E+00  0.00000000E+00
  0.00000000E+00  0.00000000E+00  0.00000000E+00  1.12582578E-02  0.00000000E+00
  0.00000000E+00  3.32855942E-02  0.00000000E+00  0.00000000E+00  2.70817309E-02
  0.00000000E+00  0.00000000E+00  0.00000000E+00  3.08865631E-03  0.00000000E+00
  0.00000000E+00 -4.12107112E-03  0.00000000E+00  3.55468279E-03  0.00000000E+00
  0.00000000E+00 -6.05487271E-03  0.00000000E+00  0.00000000E+00  0.00000000E+00
  0.00000000E+00  1.12582578E-02  0.00000000E+00  0.00000000E+00  3.32855942E-02
  0.00000000E+00  0.00000000E+00  2.70817309E-02  0.00000000E+00  0.00000000E+00
  0.00000000E+00  3.08865631E-03  0.00000000E+00  0.00000000E+00  4.12107112E-03
  0.00000000E+00  3.55468279E-03  0.00000000E+00  0.00000000E+00  6.05487271E-03
  5.88002422E-02 -1.58637598E-01 -5.29506012E-02 -2.64530551E-01 -4.86660703E-03
  0.00000000E+00  0.00000000E+00  1.04579384E-01  0.00000000E+00  0.00000000E+00
  1.21475553E-01  0.00000000E+00  0.00000000E+00  1.41217924E-01  0.00000000E+00
  0.00000000E+00 -5.68181954E-02 -1.49018401E-03  0.00000000E+00  0.00000000E+00
 -1.22364079E-03  0.00000000E+00 -5.83634829E-03  0.00000000E+00  0.00000000E+00
 -2.07266652E-03  0.00000000E+00 -3.26174647E-04  0.00000000E+00  0.00000000E+00
 -1.49429463E-03  0.00000000E+00  5.63550646E-04  0.00000000E+00  0.00000000E+00
  2.26656512E-04  0.00000000E+00  0.00000000E+00  0.00000000E+00 -1.50576004E-03
  0.00000000E+00  0.00000000E+00 -3.51479560E-03  0.00000000E+00  0.00000000E+00
  0.00000000E+00  2.82688171E-02  9.69074515E-02  1.94194630E-01  3.68365087E-01
  0.00000000E+00  9.28603019E-03 -4.62380068E-03  0.00000000E+00  3.00872726E-02
 -2.13661875E-02  0.00000000E+00  5.68492707E-02 -5.88863089E-02  7.43066947E-04
  0.00000000E+00  2.45805924E-03  2.10295605E-03  0.00000000E+00  1.38694272E-03
  0.00000000E+00  5.23093950E-03  1.38132258E-03  0.00000000E+00  2.82688171E-02
  9.69074515E-02  1.94194630E-01  3.68365087E-01  0.00000000E+00 -9.28603019E-03
 -4.62380068E-03  0.00000000E+00 -3.00872726E-02 -2.13661875E-02  0.00000000E+00
 -5.68492707E-02 -5.88863089E-02  7.43066947E-04  0.00000000E+00 -2.45805924E-03
  2.10295605E-03  0.00000000E+00  1.38694272E-03  0.00000000E+00 -5.23093950E-03
  1.38132258E-03  0.00000000E+00  0.00000000E+00  0.00000000E+00  0.00000000E+00
  0.00000000E+00  0.00000000E+00  0.00000000E+00 -1.20082669E-01  0.00000000E+00
  0.00000000E+00 -1.45330610E-01  0.00000000E+00  0.00000000E+00 -3.00291134E-01
  0.00000000E+00  0.00000000E+00 -4.22685492E-01  0.00000000E+00  0.00000000E+00
  0.00000000E+00 -2.51609448E-04  0.00000000E+00  0.00000000E+00  0.00000000E+00
  0.00000000E+00  4.32099597E-03  0.00000000E+00  0.00000000E+00  0.00000000E+00
  0.00000000E+00  5.95174662E-02  0.00000000E+00  0.00000000E+00  0.00000000E+00
  0.00000000E+00  7.85256043E-04  0.00000000E+00  0.00000000E+00  0.00000000E+00
  4.99082874E-04  0.00000000E+00  0.00000000E+00 -3.94504806E-03  0.00000000E+00
  0.00000000E+00  0.00000000E+00  3.92607217E-03  1.31302175E-02  1.36082124E-01
  6.17662199E-01  2.22203839E+00  0.00000000E+00  4.85546058E-03 -6.09284697E-03
  0.00000000E+00  2.22078378E-03 -1.33575836E-03  0.00000000E+00  2.23574941E-02
  8.36677005E-03 -9.93089790E-04  0.00000000E+00  2.21454623E-04 -6.08725398E-04
  0.00000000E+00 -1.24127058E-03  0.00000000E+00 -4.15723542E-03  3.47137164E-03
  0.00000000E+00 -1.31302175E-02 -1.36082124E-01 -6.17662199E-01 -2.22203839E+00
  0.00000000E+00  4.85546058E-03  6.09284697E-03  0.00000000E+00  2.22078378E-03
  1.33575836E-03  0.00000000E+00  2.23574941E-02 -8.36677005E-03  9.93089790E-04
  0.00000000E+00  2.21454623E-04  6.08725398E-04  0.00000000E+00  1.24127058E-03
  0.00000000E+00 -4.15723542E-03 -3.47137164E-03  0.00000000E+00  2.24829716E-02
 -7.42295655E-02 -2.93815270E-02  1.19400550E+00  4.78735085E+00  0.00000000E+00
  0.00000000E+00  1.33670506E-01  0.00000000E+00  0.00000000E+00  9.45174254E-02
  0.00000000E+00  0.00000000E+00 -2.72965103E-01  0.00000000E+00  0.00000000E+00
 -1.20296533E+00 -1.28603884E-03  0.00000000E+00  0.00000000E+00 -1.06884503E-03
  0.00000000E+00 -5.53368848E-03  0.00000000E+00  0.00000000E+00 -3.05320967E-02
  0.00000000E+00  3.14878509E-02  0.00000000E+00  0.00000000E+00 -6.71870250E-02
  0.00000000E+00  1.83508858E-03  0.00000000E+00  0.00000000E+00  2.41564350E-03
  0.00000000E+00  0.00000000E+00  0.00000000E+00  1.39082627E-03  0.00000000E+00
  0.00000000E+00  3.28915079E-03  0.00000000E+00  0.00000000E+00  0.00000000E+00
  2.53294339E-02 -1.89809808E-01 -1.92188333E+00 -9.56578427E-01  0.00000000E+00
  6.04792467E-03 -3.58019731E-03  0.00000000E+00  1.76380353E-01 -1.30161986E-01
  0.00000000E+00  5.81771877E-01 -4.74473005E-01 -8.00211204E-04  0.00000000E+00
  9.95523216E-03  6.92673326E-03  0.00000000E+00  7.49085095E-03  0.00000000E+00
  7.09737691E-02  4.59145239E-02  0.00000000E+00  2.53294339E-02 -1.89809808E-01
 -1.92188333E+00 -9.56578427E-01  0.00000000E+00 -6.04792467E-03 -3.58019731E-03
  0.00000000E+00 -1.76380353E-01 -1.30161986E-01  0.00000000E+00 -5.81771877E-01
 -4.74473005E-01 -8.00211204E-04  0.00000000E+00 -9.95523216E-03  6.92673326E-03
  0.00000000E+00  7.49085095E-03  0.00000000E+00 -7.09737691E-02  4.59145239E-02
  0.00000000E+00  0.00000000E+00  0.00000000E+00  0.00000000E+00  0.00000000E+00
  0.00000000E+00 -1.39331778E-01  0.00000000E+00  0.00000000E+00 -1.48622943E-01
  0.00000000E+00  0.00000000E+00 -1.20165619E-01  0.00000000E+00  0.00000000E+00
  1.40669140E+00  0.00000000E+00  0.00000000E+00  0.00000000E+00 -5.70683365E-04
  0.00000000E+00  0.00000000E+00  0.00000000E+00  0.00000000E+00  2.17808326E-02
  0.00000000E+00  0.00000000E+00  0.00000000E+00  0.00000000E+00 -1.11680750E-01
  0.00000000E+00  0.00000000E+00  0.00000000E+00  0.00000000E+00 -1.36627666E-03
  0.00000000E+00  0.00000000E+00  0.00000000E+00  2.77624426E-03  0.00000000E+00
  0.00000000E+00  3.35727087E-03  0.00000000E+00  0.00000000E+00  0.00000000E+00
 -3.86948502E-03  0.00000000E+00  0.00000000E+00  0.00000000E+00  0.00000000E+00
  0.00000000E+00  5.03030569E-05  0.00000000E+00  0.00000000E+00 -8.38016751E-03
  0.00000000E+00  0.00000000E+00 -2.35585016E-01  0.00000000E+00  0.00000000E+00
  0.00000000E+00  8.53446133E-04  0.00000000E+00  0.00000000E+00 -3.41038290E-04
  0.00000000E+00 -2.34451028E-02  0.00000000E+00  0.00000000E+00  3.50128474E-02
  0.00000000E+00  0.00000000E+00  0.00000000E+00  0.00000000E+00  5.03030569E-05
  0.00000000E+00  0.00000000E+00 -8.38016751E-03  0.00000000E+00  0.00000000E+00
 -2.35585016E-01  0.00000000E+00  0.00000000E+00  0.00000000E+00  8.53446133E-04
  0.00000000E+00  0.00000000E+00  3.41038290E-04  0.00000000E+00 -2.34451028E-02
  0.00000000E+00  0.00000000E+00 -3.50128474E-02  5.63268159E-02 -1.50819839E-01
 -5.91769615E-02  4.52015878E-01  1.07721395E+00  0.00000000E+00  0.00000000E+00
 -2.08733643E-02  0.00000000E+00  0.00000000E+00 -5.98103383E-02  0.00000000E+00
  0.00000000E+00 -3.35130935E-01  0.00000000E+00  0.00000000E+00  1.18125430E+00
 -2.11148720E-03  0.00000000E+00  0.00000000E+00 -4.26498868E-04  0.00000000E+00
  1.43604814E-02  0.00000000E+00  0.00000000E+00 -4.49656810E-02  0.00000000E+00
 -4.15269269E-02  0.00000000E+00  0.00000000E+00 -3.10672983E-02  0.00000000E+00
  1.28611177E-03  0.00000000E+00  0.00000000E+00  2.69838478E-03  0.00000000E+00
  0.00000000E+00  0.00000000E+00  8.02784336E-03  0.00000000E+00  0.00000000E+00
  1.63748468E-02  0.00000000E+00  0.00000000E+00  0.00000000E+00  4.99270340E-02
 -1.73203395E-01  2.34147356E-01 -5.19241527E-01  0.00000000E+00  1.03220282E-02
 -5.58532182E-03  0.00000000E+00  1.04422345E-01 -6.14976548E-02  0.00000000E+00
  4.16127732E-01 -3.13207552E-01 -1.04202704E-03  0.00000000E+00  7.05763257E-03
  2.01347766E-03  0.00000000E+00  1.18538788E-03  0.00000000E+00  4.51955697E-02
  3.43061097E-02  0.00000000E+00  4.99270340E-02 -1.73203395E-01  2.34147356E-01
 -5.19241527E-01  0.00000000E+00 -1.03220282E-02 -5.58532182E-03  0.00000000E+00
 -1.04422345E-01 -6.14976548E-02  0.00000000E+00 -4.16127732E-01 -3.13207552E-01
 -1.04202704E-03  0.00000000E+00 -7.05763257E-03  2.01347766E-03  0.00000000E+00
  1.18538788E-03  0.00000000E+00 -4.51955697E-02  3.43061097E-02  0.00000000E+00
  0.00000000E+00  0.00000000E+00  0.00000000E+00  0.00000000E+00  0.00000000E+00
  0.00000000E+00  1.77638447E-01  0.00000000E+00  0.00000000E+00  1.32173646E-01
  0.00000000E+00  0.00000000E+00 -4.71519523E-01  0.00000000E+00  0.00000000E+00
 -1.38396285E+00  0.00000000E+00  0.00000000E+00  0.00000000E+00  2.46907044E-03
  0.00000000E+00  0.00000000E+00  0.00000000E+00  0.00000000E+00  6.50915471E-02
  0.00000000E+00  0.00000000E+00  0.00000000E+00  0.00000000E+00  9.27275566E-02
  0.00000000E+00  0.00000000E+00  0.00000000E+00  0.00000000E+00 -4.55859739E-03
  0.00000000E+00  0.00000000E+00  0.00000000E+00  1.57369519E-04  0.00000000E+00